 # File generated with Atomsk by adham on 2023-01-18 12:21:08
 
         365  atoms
           1  atom types
 
      0.000000000000      17.909550000000  xlo xhi
      0.000000000000      17.909550000000  ylo yhi
      0.000000000000      17.909550000000  zlo zhi
 
Masses
 
            1   63.54600000             # Cu
 
Atoms # atomic
 
         1    1        1.790955000000       1.790955000000       1.790955000000
         2    1        1.790955000000       1.790955000000      16.118595000000
         3    1        1.790955000000      16.118595000000       1.790955000000
         4    1        1.790955000000      16.118595000000      16.118595000000
         5    1       16.118595000000       1.790955000000       1.790955000000
         6    1       16.118595000000       1.790955000000      16.118595000000
         7    1       16.118595000000      16.118595000000       1.790955000000
         8    1       16.118595000000      16.118595000000      16.118595000000
         9    1        1.790955000000       3.581910000000       3.581910000000
        10    1       16.118595000000       3.581910000000       3.581910000000
        11    1        3.581910000000       1.790955000000       3.581910000000
        12    1        3.581910000000      16.118595000000       3.581910000000
        13    1        3.581910000000       3.581910000000       1.790955000000
        14    1        3.581910000000       3.581910000000      16.118595000000
        15    1        1.790955000000       1.790955000000       5.372865000000
        16    1        1.790955000000      16.118595000000       5.372865000000
        17    1       16.118595000000       1.790955000000       5.372865000000
        18    1       16.118595000000      16.118595000000       5.372865000000
        19    1        1.790955000000       1.790955000000      12.536685000000
        20    1        1.790955000000      16.118595000000      12.536685000000
        21    1       16.118595000000       1.790955000000      12.536685000000
        22    1       16.118595000000      16.118595000000      12.536685000000
        23    1        5.372865000000       1.790955000000       1.790955000000
        24    1        5.372865000000       1.790955000000      16.118595000000
        25    1        5.372865000000      16.118595000000       1.790955000000
        26    1        5.372865000000      16.118595000000      16.118595000000
        27    1       12.536685000000       1.790955000000       1.790955000000
        28    1       12.536685000000       1.790955000000      16.118595000000
        29    1       12.536685000000      16.118595000000       1.790955000000
        30    1       12.536685000000      16.118595000000      16.118595000000
        31    1        1.790955000000       5.372865000000       1.790955000000
        32    1        1.790955000000       5.372865000000      16.118595000000
        33    1       16.118595000000       5.372865000000       1.790955000000
        34    1       16.118595000000       5.372865000000      16.118595000000
        35    1        1.790955000000      12.536685000000       1.790955000000
        36    1        1.790955000000      12.536685000000      16.118595000000
        37    1       16.118595000000      12.536685000000       1.790955000000
        38    1       16.118595000000      12.536685000000      16.118595000000
        39    1        1.790955000000       3.581910000000       7.163820000000
        40    1       16.118595000000       3.581910000000       7.163820000000
        41    1        1.790955000000       3.581910000000      14.327640000000
        42    1       16.118595000000       3.581910000000      14.327640000000
        43    1        5.372865000000       3.581910000000       3.581910000000
        44    1       12.536685000000       3.581910000000       3.581910000000
        45    1        1.790955000000       7.163820000000       3.581910000000
        46    1       16.118595000000       7.163820000000       3.581910000000
        47    1        1.790955000000      14.327640000000       3.581910000000
        48    1       16.118595000000      14.327640000000       3.581910000000
        49    1        3.581910000000       1.790955000000       7.163820000000
        50    1        3.581910000000      16.118595000000       7.163820000000
        51    1        3.581910000000       1.790955000000      14.327640000000
        52    1        3.581910000000      16.118595000000      14.327640000000
        53    1        7.163820000000       1.790955000000       3.581910000000
        54    1        7.163820000000      16.118595000000       3.581910000000
        55    1       14.327640000000       1.790955000000       3.581910000000
        56    1       14.327640000000      16.118595000000       3.581910000000
        57    1        3.581910000000       5.372865000000       3.581910000000
        58    1        3.581910000000      12.536685000000       3.581910000000
        59    1        3.581910000000       3.581910000000       5.372865000000
        60    1        3.581910000000       3.581910000000      12.536685000000
        61    1        7.163820000000       3.581910000000       1.790955000000
        62    1        7.163820000000       3.581910000000      16.118595000000
        63    1       14.327640000000       3.581910000000       1.790955000000
        64    1       14.327640000000       3.581910000000      16.118595000000
        65    1        3.581910000000       7.163820000000       1.790955000000
        66    1        3.581910000000       7.163820000000      16.118595000000
        67    1        3.581910000000      14.327640000000       1.790955000000
        68    1        3.581910000000      14.327640000000      16.118595000000
        69    1        1.790955000000       1.790955000000       8.954775000000
        70    1        1.790955000000      16.118595000000       8.954775000000
        71    1       16.118595000000       1.790955000000       8.954775000000
        72    1       16.118595000000      16.118595000000       8.954775000000
        73    1        8.954775000000       1.790955000000       1.790955000000
        74    1        8.954775000000       1.790955000000      16.118595000000
        75    1        8.954775000000      16.118595000000       1.790955000000
        76    1        8.954775000000      16.118595000000      16.118595000000
        77    1        1.790955000000       8.954775000000       1.790955000000
        78    1        1.790955000000       8.954775000000      16.118595000000
        79    1       16.118595000000       8.954775000000       1.790955000000
        80    1       16.118595000000       8.954775000000      16.118595000000
        81    1        1.790955000000       3.581910000000      10.745730000000
        82    1       16.118595000000       3.581910000000      10.745730000000
        83    1        8.954775000000       3.581910000000       3.581910000000
        84    1        1.790955000000      10.745730000000       3.581910000000
        85    1       16.118595000000      10.745730000000       3.581910000000
        86    1        3.581910000000       1.790955000000      10.745730000000
        87    1        3.581910000000      16.118595000000      10.745730000000
        88    1       10.745730000000       1.790955000000       3.581910000000
        89    1       10.745730000000      16.118595000000       3.581910000000
        90    1        3.581910000000       8.954775000000       3.581910000000
        91    1        3.581910000000       3.581910000000       8.954775000000
        92    1       10.745730000000       3.581910000000       1.790955000000
        93    1       10.745730000000       3.581910000000      16.118595000000
        94    1        3.581910000000      10.745730000000       1.790955000000
        95    1        3.581910000000      10.745730000000      16.118595000000
        96    1        1.790955000000       5.372865000000       5.372865000000
        97    1       16.118595000000       5.372865000000       5.372865000000
        98    1        1.790955000000      12.536685000000      12.536685000000
        99    1       16.118595000000      12.536685000000      12.536685000000
       100    1        1.790955000000      12.536685000000       5.372865000000
       101    1       16.118595000000      12.536685000000       5.372865000000
       102    1        1.790955000000       5.372865000000      12.536685000000
       103    1       16.118595000000       5.372865000000      12.536685000000
       104    1        5.372865000000       1.790955000000       5.372865000000
       105    1        5.372865000000      16.118595000000       5.372865000000
       106    1       12.536685000000       1.790955000000      12.536685000000
       107    1       12.536685000000      16.118595000000      12.536685000000
       108    1        5.372865000000       1.790955000000      12.536685000000
       109    1        5.372865000000      16.118595000000      12.536685000000
       110    1       12.536685000000       1.790955000000       5.372865000000
       111    1       12.536685000000      16.118595000000       5.372865000000
       112    1        5.372865000000       5.372865000000       1.790955000000
       113    1        5.372865000000       5.372865000000      16.118595000000
       114    1       12.536685000000      12.536685000000       1.790955000000
       115    1       12.536685000000      12.536685000000      16.118595000000
       116    1       12.536685000000       5.372865000000       1.790955000000
       117    1       12.536685000000       5.372865000000      16.118595000000
       118    1        5.372865000000      12.536685000000       1.790955000000
       119    1        5.372865000000      12.536685000000      16.118595000000
       120    1        1.790955000000       7.163820000000       7.163820000000
       121    1       16.118595000000       7.163820000000       7.163820000000
       122    1        1.790955000000      14.327640000000      14.327640000000
       123    1       16.118595000000      14.327640000000      14.327640000000
       124    1        1.790955000000      14.327640000000       7.163820000000
       125    1       16.118595000000      14.327640000000       7.163820000000
       126    1        1.790955000000       7.163820000000      14.327640000000
       127    1       16.118595000000       7.163820000000      14.327640000000
       128    1        5.372865000000       3.581910000000       7.163820000000
       129    1       12.536685000000       3.581910000000      14.327640000000
       130    1        5.372865000000       3.581910000000      14.327640000000
       131    1       12.536685000000       3.581910000000       7.163820000000
       132    1        5.372865000000       7.163820000000       3.581910000000
       133    1       12.536685000000      14.327640000000       3.581910000000
       134    1       12.536685000000       7.163820000000       3.581910000000
       135    1        5.372865000000      14.327640000000       3.581910000000
       136    1        3.581910000000       5.372865000000       7.163820000000
       137    1        3.581910000000      12.536685000000      14.327640000000
       138    1        3.581910000000      12.536685000000       7.163820000000
       139    1        3.581910000000       5.372865000000      14.327640000000
       140    1        7.163820000000       1.790955000000       7.163820000000
       141    1        7.163820000000      16.118595000000       7.163820000000
       142    1       14.327640000000       1.790955000000      14.327640000000
       143    1       14.327640000000      16.118595000000      14.327640000000
       144    1        7.163820000000       1.790955000000      14.327640000000
       145    1        7.163820000000      16.118595000000      14.327640000000
       146    1       14.327640000000       1.790955000000       7.163820000000
       147    1       14.327640000000      16.118595000000       7.163820000000
       148    1        7.163820000000       5.372865000000       3.581910000000
       149    1       14.327640000000      12.536685000000       3.581910000000
       150    1       14.327640000000       5.372865000000       3.581910000000
       151    1        7.163820000000      12.536685000000       3.581910000000
       152    1        3.581910000000       7.163820000000       5.372865000000
       153    1        3.581910000000      14.327640000000      12.536685000000
       154    1        3.581910000000      14.327640000000       5.372865000000
       155    1        3.581910000000       7.163820000000      12.536685000000
       156    1        7.163820000000       3.581910000000       5.372865000000
       157    1       14.327640000000       3.581910000000      12.536685000000
       158    1        7.163820000000       3.581910000000      12.536685000000
       159    1       14.327640000000       3.581910000000       5.372865000000
       160    1        7.163820000000       7.163820000000       1.790955000000
       161    1        7.163820000000       7.163820000000      16.118595000000
       162    1       14.327640000000      14.327640000000       1.790955000000
       163    1       14.327640000000      14.327640000000      16.118595000000
       164    1       14.327640000000       7.163820000000       1.790955000000
       165    1       14.327640000000       7.163820000000      16.118595000000
       166    1        7.163820000000      14.327640000000       1.790955000000
       167    1        7.163820000000      14.327640000000      16.118595000000
       168    1        1.790955000000       5.372865000000       8.954775000000
       169    1       16.118595000000       5.372865000000       8.954775000000
       170    1        1.790955000000      12.536685000000       8.954775000000
       171    1       16.118595000000      12.536685000000       8.954775000000
       172    1        8.954775000000       1.790955000000       5.372865000000
       173    1        8.954775000000      16.118595000000       5.372865000000
       174    1        8.954775000000       1.790955000000      12.536685000000
       175    1        8.954775000000      16.118595000000      12.536685000000
       176    1        5.372865000000       8.954775000000       1.790955000000
       177    1        5.372865000000       8.954775000000      16.118595000000
       178    1       12.536685000000       8.954775000000       1.790955000000
       179    1       12.536685000000       8.954775000000      16.118595000000
       180    1        5.372865000000       1.790955000000       8.954775000000
       181    1        5.372865000000      16.118595000000       8.954775000000
       182    1       12.536685000000       1.790955000000       8.954775000000
       183    1       12.536685000000      16.118595000000       8.954775000000
       184    1        1.790955000000       8.954775000000      12.536685000000
       185    1       16.118595000000       8.954775000000      12.536685000000
       186    1        1.790955000000       8.954775000000       5.372865000000
       187    1       16.118595000000       8.954775000000       5.372865000000
       188    1        8.954775000000       5.372865000000       1.790955000000
       189    1        8.954775000000       5.372865000000      16.118595000000
       190    1        8.954775000000      12.536685000000       1.790955000000
       191    1        8.954775000000      12.536685000000      16.118595000000
       192    1        1.790955000000       7.163820000000      10.745730000000
       193    1       16.118595000000       7.163820000000      10.745730000000
       194    1        1.790955000000      14.327640000000      10.745730000000
       195    1       16.118595000000      14.327640000000      10.745730000000
       196    1        8.954775000000       3.581910000000       7.163820000000
       197    1        8.954775000000       3.581910000000      14.327640000000
       198    1        5.372865000000      10.745730000000       3.581910000000
       199    1       12.536685000000      10.745730000000       3.581910000000
       200    1        5.372865000000       3.581910000000      10.745730000000
       201    1       12.536685000000       3.581910000000      10.745730000000
       202    1        1.790955000000      10.745730000000      14.327640000000
       203    1       16.118595000000      10.745730000000      14.327640000000
       204    1        1.790955000000      10.745730000000       7.163820000000
       205    1       16.118595000000      10.745730000000       7.163820000000
       206    1        8.954775000000       7.163820000000       3.581910000000
       207    1        8.954775000000      14.327640000000       3.581910000000
       208    1        3.581910000000       5.372865000000      10.745730000000
       209    1        3.581910000000      12.536685000000      10.745730000000
       210    1       10.745730000000       1.790955000000       7.163820000000
       211    1       10.745730000000      16.118595000000       7.163820000000
       212    1       10.745730000000       1.790955000000      14.327640000000
       213    1       10.745730000000      16.118595000000      14.327640000000
       214    1        7.163820000000       8.954775000000       3.581910000000
       215    1       14.327640000000       8.954775000000       3.581910000000
       216    1        7.163820000000       1.790955000000      10.745730000000
       217    1        7.163820000000      16.118595000000      10.745730000000
       218    1       14.327640000000       1.790955000000      10.745730000000
       219    1       14.327640000000      16.118595000000      10.745730000000
       220    1        3.581910000000       8.954775000000      14.327640000000
       221    1        3.581910000000       8.954775000000       7.163820000000
       222    1       10.745730000000       5.372865000000       3.581910000000
       223    1       10.745730000000      12.536685000000       3.581910000000
       224    1        3.581910000000       7.163820000000       8.954775000000
       225    1        3.581910000000      14.327640000000       8.954775000000
       226    1       10.745730000000       3.581910000000       5.372865000000
       227    1       10.745730000000       3.581910000000      12.536685000000
       228    1        7.163820000000      10.745730000000       1.790955000000
       229    1        7.163820000000      10.745730000000      16.118595000000
       230    1       14.327640000000      10.745730000000       1.790955000000
       231    1       14.327640000000      10.745730000000      16.118595000000
       232    1        7.163820000000       3.581910000000       8.954775000000
       233    1       14.327640000000       3.581910000000       8.954775000000
       234    1        3.581910000000      10.745730000000      12.536685000000
       235    1        3.581910000000      10.745730000000       5.372865000000
       236    1       10.745730000000       7.163820000000       1.790955000000
       237    1       10.745730000000       7.163820000000      16.118595000000
       238    1       10.745730000000      14.327640000000       1.790955000000
       239    1       10.745730000000      14.327640000000      16.118595000000
       240    1        1.790955000000       8.954775000000       8.954775000000
       241    1       16.118595000000       8.954775000000       8.954775000000
       242    1        8.954775000000       1.790955000000       8.954775000000
       243    1        8.954775000000      16.118595000000       8.954775000000
       244    1        8.954775000000       8.954775000000       1.790955000000
       245    1        8.954775000000       8.954775000000      16.118595000000
       246    1        1.790955000000      10.745730000000      10.745730000000
       247    1       16.118595000000      10.745730000000      10.745730000000
       248    1        8.954775000000       3.581910000000      10.745730000000
       249    1        8.954775000000      10.745730000000       3.581910000000
       250    1        3.581910000000       8.954775000000      10.745730000000
       251    1       10.745730000000       1.790955000000      10.745730000000
       252    1       10.745730000000      16.118595000000      10.745730000000
       253    1       10.745730000000       8.954775000000       3.581910000000
       254    1        3.581910000000      10.745730000000       8.954775000000
       255    1       10.745730000000       3.581910000000       8.954775000000
       256    1       10.745730000000      10.745730000000       1.790955000000
       257    1       10.745730000000      10.745730000000      16.118595000000
       258    1        5.372865000000       5.372865000000       5.372865000000
       259    1       12.536685000000      12.536685000000      12.536685000000
       260    1       12.536685000000      12.536685000000       5.372865000000
       261    1        5.372865000000       5.372865000000      12.536685000000
       262    1       12.536685000000       5.372865000000      12.536685000000
       263    1        5.372865000000      12.536685000000       5.372865000000
       264    1        5.372865000000      12.536685000000      12.536685000000
       265    1       12.536685000000       5.372865000000       5.372865000000
       266    1        5.372865000000       7.163820000000       7.163820000000
       267    1       12.536685000000      14.327640000000      14.327640000000
       268    1       12.536685000000      14.327640000000       7.163820000000
       269    1        5.372865000000       7.163820000000      14.327640000000
       270    1       12.536685000000       7.163820000000      14.327640000000
       271    1        5.372865000000      14.327640000000       7.163820000000
       272    1        5.372865000000      14.327640000000      14.327640000000
       273    1       12.536685000000       7.163820000000       7.163820000000
       274    1        7.163820000000       5.372865000000       7.163820000000
       275    1       14.327640000000      12.536685000000      14.327640000000
       276    1       14.327640000000      12.536685000000       7.163820000000
       277    1        7.163820000000       5.372865000000      14.327640000000
       278    1       14.327640000000       5.372865000000      14.327640000000
       279    1        7.163820000000      12.536685000000       7.163820000000
       280    1        7.163820000000      12.536685000000      14.327640000000
       281    1       14.327640000000       5.372865000000       7.163820000000
       282    1        7.163820000000       7.163820000000       5.372865000000
       283    1       14.327640000000      14.327640000000      12.536685000000
       284    1       14.327640000000      14.327640000000       5.372865000000
       285    1        7.163820000000       7.163820000000      12.536685000000
       286    1       14.327640000000       7.163820000000      12.536685000000
       287    1        7.163820000000      14.327640000000       5.372865000000
       288    1        7.163820000000      14.327640000000      12.536685000000
       289    1       14.327640000000       7.163820000000       5.372865000000
       290    1        5.372865000000       5.372865000000       8.954775000000
       291    1       12.536685000000      12.536685000000       8.954775000000
       292    1       12.536685000000       5.372865000000       8.954775000000
       293    1        5.372865000000      12.536685000000       8.954775000000
       294    1        8.954775000000       5.372865000000       5.372865000000
       295    1        8.954775000000      12.536685000000      12.536685000000
       296    1        8.954775000000      12.536685000000       5.372865000000
       297    1        8.954775000000       5.372865000000      12.536685000000
       298    1        5.372865000000       8.954775000000       5.372865000000
       299    1       12.536685000000       8.954775000000      12.536685000000
       300    1        5.372865000000       8.954775000000      12.536685000000
       301    1       12.536685000000       8.954775000000       5.372865000000
       302    1        5.372865000000       7.163820000000      10.745730000000
       303    1       12.536685000000      14.327640000000      10.745730000000
       304    1       12.536685000000       7.163820000000      10.745730000000
       305    1        5.372865000000      14.327640000000      10.745730000000
       306    1        8.954775000000       7.163820000000       7.163820000000
       307    1        8.954775000000      14.327640000000      14.327640000000
       308    1        8.954775000000      14.327640000000       7.163820000000
       309    1        8.954775000000       7.163820000000      14.327640000000
       310    1        5.372865000000      10.745730000000       7.163820000000
       311    1       12.536685000000      10.745730000000      14.327640000000
       312    1        5.372865000000      10.745730000000      14.327640000000
       313    1       12.536685000000      10.745730000000       7.163820000000
       314    1        7.163820000000       5.372865000000      10.745730000000
       315    1       14.327640000000      12.536685000000      10.745730000000
       316    1       14.327640000000       5.372865000000      10.745730000000
       317    1        7.163820000000      12.536685000000      10.745730000000
       318    1       10.745730000000       5.372865000000       7.163820000000
       319    1       10.745730000000      12.536685000000      14.327640000000
       320    1       10.745730000000      12.536685000000       7.163820000000
       321    1       10.745730000000       5.372865000000      14.327640000000
       322    1        7.163820000000       8.954775000000       7.163820000000
       323    1       14.327640000000       8.954775000000      14.327640000000
       324    1        7.163820000000       8.954775000000      14.327640000000
       325    1       14.327640000000       8.954775000000       7.163820000000
       326    1        7.163820000000       7.163820000000       8.954775000000
       327    1       14.327640000000      14.327640000000       8.954775000000
       328    1       14.327640000000       7.163820000000       8.954775000000
       329    1        7.163820000000      14.327640000000       8.954775000000
       330    1       10.745730000000       7.163820000000       5.372865000000
       331    1       10.745730000000      14.327640000000      12.536685000000
       332    1       10.745730000000      14.327640000000       5.372865000000
       333    1       10.745730000000       7.163820000000      12.536685000000
       334    1        7.163820000000      10.745730000000       5.372865000000
       335    1       14.327640000000      10.745730000000      12.536685000000
       336    1        7.163820000000      10.745730000000      12.536685000000
       337    1       14.327640000000      10.745730000000       5.372865000000
       338    1        5.372865000000       8.954775000000       8.954775000000
       339    1       12.536685000000       8.954775000000       8.954775000000
       340    1        8.954775000000       5.372865000000       8.954775000000
       341    1        8.954775000000      12.536685000000       8.954775000000
       342    1        8.954775000000       8.954775000000       5.372865000000
       343    1        8.954775000000       8.954775000000      12.536685000000
       344    1        5.372865000000      10.745730000000      10.745730000000
       345    1       12.536685000000      10.745730000000      10.745730000000
       346    1        8.954775000000       7.163820000000      10.745730000000
       347    1        8.954775000000      14.327640000000      10.745730000000
       348    1        8.954775000000      10.745730000000       7.163820000000
       349    1        8.954775000000      10.745730000000      14.327640000000
       350    1        7.163820000000       8.954775000000      10.745730000000
       351    1       14.327640000000       8.954775000000      10.745730000000
       352    1       10.745730000000       5.372865000000      10.745730000000
       353    1       10.745730000000      12.536685000000      10.745730000000
       354    1       10.745730000000       8.954775000000       7.163820000000
       355    1       10.745730000000       8.954775000000      14.327640000000
       356    1        7.163820000000      10.745730000000       8.954775000000
       357    1       14.327640000000      10.745730000000       8.954775000000
       358    1       10.745730000000       7.163820000000       8.954775000000
       359    1       10.745730000000      14.327640000000       8.954775000000
       360    1       10.745730000000      10.745730000000       5.372865000000
       361    1       10.745730000000      10.745730000000      12.536685000000
       362    1        8.954775000000       8.954775000000       8.954775000000
       363    1        8.954775000000      10.745730000000      10.745730000000
       364    1       10.745730000000       8.954775000000      10.745730000000
       365    1       10.745730000000      10.745730000000       8.954775000000
