LAMMPS (24 Mar 2022)
Reading data file ...
  orthogonal box = (0 0 0) to (17.90955 17.90955 17.90955)
  1 by 1 by 1 MPI processor grid
  reading atoms ...
  365 atoms
  read_data CPU = 0.030 seconds
Neighbor list info ...
  update every 1 steps, delay 10 steps, check yes
  max neighbors/atom: 2000, page size: 100000
  master list distance cutoff = 6.450959
  ghost atom cutoff = 6.450959
  binsize = 3.2254795, bins = 6 6 6
  1 neighbor lists, perpetual/occasional/extra = 1 0 0
  (1) pair adp, perpetual
      attributes: half, newton on
      pair build: half/bin/atomonly/newton
      stencil: half/bin/3d
      bin: standard
Setting up Verlet run ...
  Unit style    : metal
  Current step  : 0
  Time step     : 0.001
Per MPI rank memory allocation (min/avg/max) = 6.776 | 6.776 | 6.776 Mbytes
   Step          Temp          E_pair         E_mol          TotEng         Press     
         0   0             -1169.9166      0             -1169.9166     -22822.181    
         1   0.022234871   -1169.9177      0             -1169.9166     -22825.957    
         2   0.088896977   -1169.9208      0             -1169.9166     -22837.281    
         3   0.19985894    -1169.926       0             -1169.9166     -22856.144    
         4   0.35490891    -1169.9333      0             -1169.9166     -22882.531    
         5   0.55375131    -1169.9427      0             -1169.9166     -22916.422    
         6   0.79600777    -1169.9541      0             -1169.9166     -22957.789    
         7   1.0812184     -1169.9675      0             -1169.9166     -23006.601    
         8   1.4088432     -1169.9829      0             -1169.9166     -23062.82     
         9   1.778264      -1170.0003      0             -1169.9166     -23126.402    
        10   2.1887862     -1170.0196      0             -1169.9166     -23197.297    
        11   2.6396414     -1170.0408      0             -1169.9166     -23275.453    
        12   3.1299895     -1170.0639      0             -1169.9167     -23360.809    
        13   3.6589214     -1170.0888      0             -1169.9167     -23453.301    
        14   4.2254624     -1170.1155      0             -1169.9167     -23552.862    
        15   4.8285745     -1170.1438      0             -1169.9167     -23659.417    
        16   5.4671601     -1170.1739      0             -1169.9167     -23772.891    
        17   6.1400655     -1170.2056      0             -1169.9167     -23893.201    
        18   6.8460842     -1170.2388      0             -1169.9167     -24020.264    
        19   7.5839606     -1170.2735      0             -1169.9167     -24153.991    
        20   8.352394      -1170.3097      0             -1169.9167     -24294.29     
        21   9.1500422     -1170.3472      0             -1169.9167     -24441.067    
        22   9.9755259     -1170.386       0             -1169.9167     -24594.224    
        23   10.827432     -1170.4261      0             -1169.9167     -24753.665    
        24   11.70432      -1170.4674      0             -1169.9167     -24919.287    
        25   12.604722     -1170.5098      0             -1169.9167     -25090.988    
        26   13.527151     -1170.5532      0             -1169.9167     -25268.668    
        27   14.470104     -1170.5975      0             -1169.9167     -25452.224    
        28   15.432063     -1170.6428      0             -1169.9167     -25641.551    
        29   16.411504     -1170.6889      0             -1169.9167     -25836.542    
        30   17.406901     -1170.7357      0             -1169.9167     -26037.093    
        31   18.416725     -1170.7832      0             -1169.9167     -26243.099    
        32   19.439454     -1170.8314      0             -1169.9167     -26454.455    
        33   20.473574     -1170.88        0             -1169.9167     -26671.059    
        34   21.517584     -1170.9292      0             -1169.9167     -26892.805    
        35   22.57         -1170.9787      0             -1169.9167     -27119.589    
        36   23.629361     -1171.0285      0             -1169.9167     -27351.312    
        37   24.694229     -1171.0786      0             -1169.9168     -27587.874    
        38   25.763197     -1171.1289      0             -1169.9168     -27829.176    
        39   26.834888     -1171.1794      0             -1169.9168     -28075.119    
        40   27.907964     -1171.2299      0             -1169.9168     -28325.614    
        41   28.981126     -1171.2803      0             -1169.9168     -28580.568    
        42   30.053119     -1171.3308      0             -1169.9168     -28839.89     
        43   31.122736     -1171.3811      0             -1169.9168     -29103.492    
        44   32.188817     -1171.4313      0             -1169.9168     -29371.295    
        45   33.250259     -1171.4812      0             -1169.9168     -29643.213    
        46   34.306012     -1171.5309      0             -1169.9168     -29919.169    
        47   35.355086     -1171.5803      0             -1169.9168     -30199.088    
        48   36.396552     -1171.6293      0             -1169.9168     -30482.9      
        49   37.429545     -1171.6779      0             -1169.9168     -30770.537    
        50   38.453263     -1171.726       0             -1169.9168     -31061.93     
        51   39.466973     -1171.7737      0             -1169.9168     -31357.013    
        52   40.47001      -1171.8209      0             -1169.9168     -31655.743    
        53   41.461777     -1171.8676      0             -1169.9168     -31958.089    
        54   42.441747     -1171.9137      0             -1169.9168     -32264.016    
        55   43.409461     -1171.9592      0             -1169.9168     -32573.483    
        56   44.364533     -1172.0042      0             -1169.9168     -32886.487    
        57   45.306642     -1172.0485      0             -1169.9168     -33202.987    
        58   46.23554      -1172.0922      0             -1169.9168     -33522.955    
        59   47.151044     -1172.1353      0             -1169.9168     -33846.363    
        60   48.053041     -1172.1777      0             -1169.9168     -34173.181    
        61   48.941478     -1172.2195      0             -1169.9168     -34503.388    
        62   49.816369     -1172.2607      0             -1169.9168     -34836.955    
        63   50.677785     -1172.3012      0             -1169.9168     -35173.864    
        64   51.525855     -1172.3411      0             -1169.9168     -35514.094    
        65   52.36076      -1172.3804      0             -1169.9168     -35857.631    
        66   53.182732     -1172.4191      0             -1169.9168     -36204.464    
        67   53.992046     -1172.4572      0             -1169.9168     -36554.581    
        68   54.789019     -1172.4947      0             -1169.9168     -36907.971    
        69   55.574005     -1172.5316      0             -1169.9168     -37264.62     
        70   56.347388     -1172.568       0             -1169.9168     -37624.526    
        71   57.109577     -1172.6038      0             -1169.9168     -37987.679    
        72   57.861003     -1172.6392      0             -1169.9168     -38354.076    
        73   58.60211      -1172.6741      0             -1169.9168     -38723.705    
        74   59.333355     -1172.7085      0             -1169.9168     -39096.557    
        75   60.055196     -1172.7424      0             -1169.9168     -39472.628    
        76   60.768092     -1172.776       0             -1169.9168     -39851.911    
        77   61.472493     -1172.8091      0             -1169.9168     -40234.393    
        78   62.168838     -1172.8419      0             -1169.9168     -40620.061    
        79   62.857549     -1172.8743      0             -1169.9168     -41008.899    
        80   63.539027     -1172.9063      0             -1169.9168     -41400.899    
        81   64.213645     -1172.9381      0             -1169.9168     -41796.043    
        82   64.881745     -1172.9695      0             -1169.9168     -42194.303    
        83   65.543634     -1173.0007      0             -1169.9168     -42595.653    
        84   66.199576     -1173.0315      0             -1169.9168     -43000.07     
        85   66.849795     -1173.0621      0             -1169.9168     -43407.507    
        86   67.494467     -1173.0924      0             -1169.9168     -43817.921    
        87   68.133723     -1173.1225      0             -1169.9168     -44231.265    
        88   68.767641     -1173.1523      0             -1169.9168     -44647.507    
        89   69.396251     -1173.1819      0             -1169.9168     -45066.598    
        90   70.01953      -1173.2112      0             -1169.9168     -45488.48     
        91   70.637406     -1173.2403      0             -1169.9168     -45913.088    
        92   71.249755     -1173.2691      0             -1169.9168     -46340.359    
        93   71.856405     -1173.2977      0             -1169.9168     -46770.213    
        94   72.457139     -1173.3259      0             -1169.9168     -47202.574    
        95   73.051692     -1173.3539      0             -1169.9168     -47637.36     
        96   73.63976      -1173.3816      0             -1169.9168     -48074.483    
        97   74.220999     -1173.4089      0             -1169.9168     -48513.849    
        98   74.795028     -1173.4359      0             -1169.9168     -48955.364    
        99   75.361437     -1173.4626      0             -1169.9168     -49398.925    
       100   75.919789     -1173.4889      0             -1169.9168     -49844.434    
       101   76.469623     -1173.5147      0             -1169.9168     -50291.799    
       102   77.010459     -1173.5402      0             -1169.9168     -50740.913    
       103   77.541804     -1173.5652      0             -1169.9168     -51191.655    
       104   78.063157     -1173.5897      0             -1169.9168     -51643.924    
       105   78.574012     -1173.6138      0             -1169.9168     -52097.62     
       106   79.073865     -1173.6373      0             -1169.9168     -52552.643    
       107   79.562216     -1173.6602      0             -1169.9168     -53008.885    
       108   80.038575     -1173.6827      0             -1169.9168     -53466.243    
       109   80.502468     -1173.7045      0             -1169.9168     -53924.606    
       110   80.953437     -1173.7257      0             -1169.9168     -54383.866    
       111   81.391051     -1173.7463      0             -1169.9168     -54843.914    
       112   81.814904     -1173.7662      0             -1169.9168     -55304.636    
       113   82.224622     -1173.7855      0             -1169.9168     -55765.926    
       114   82.619863     -1173.8041      0             -1169.9168     -56227.677    
       115   83.000323     -1173.822       0             -1169.9168     -56689.79     
       116   83.365736     -1173.8392      0             -1169.9168     -57152.167    
       117   83.715878     -1173.8557      0             -1169.9168     -57614.711    
       118   84.050568     -1173.8714      0             -1169.9168     -58077.327    
       119   84.369668     -1173.8865      0             -1169.9168     -58539.928    
       120   84.673086     -1173.9007      0             -1169.9168     -59002.423    
       121   84.960775     -1173.9143      0             -1169.9168     -59464.728    
       122   85.232734     -1173.9271      0             -1169.9168     -59926.761    
       123   85.489008     -1173.9391      0             -1169.9168     -60388.446    
       124   85.729685     -1173.9504      0             -1169.9168     -60849.71     
       125   85.954899     -1173.961       0             -1169.9168     -61310.483    
       126   86.164825     -1173.9709      0             -1169.9168     -61770.7      
       127   86.359678     -1173.9801      0             -1169.9168     -62230.303    
       128   86.539713     -1173.9886      0             -1169.9168     -62689.233    
       129   86.70522      -1173.9963      0             -1169.9168     -63147.441    
       130   86.856523     -1174.0035      0             -1169.9168     -63604.873    
       131   86.993976     -1174.0099      0             -1169.9168     -64061.482    
       132   87.117963     -1174.0158      0             -1169.9168     -64517.227    
       133   87.228889     -1174.021       0             -1169.9168     -64972.067    
       134   87.327183     -1174.0256      0             -1169.9168     -65425.969    
       135   87.413289     -1174.0296      0             -1169.9168     -65878.895    
       136   87.487665     -1174.0331      0             -1169.9168     -66330.82     
       137   87.55078      -1174.0361      0             -1169.9168     -66781.709    
       138   87.603108     -1174.0386      0             -1169.9168     -67231.54     
       139   87.645125     -1174.0405      0             -1169.9168     -67680.283    
       140   87.677306     -1174.0421      0             -1169.9168     -68127.921    
       141   87.700119     -1174.0431      0             -1169.9168     -68574.423    
       142   87.714023     -1174.0438      0             -1169.9168     -69019.758    
       143   87.719466     -1174.044       0             -1169.9168     -69463.905    
       144   87.716876     -1174.0439      0             -1169.9168     -69906.838    
       145   87.706664     -1174.0434      0             -1169.9168     -70348.53     
       146   87.689214     -1174.0426      0             -1169.9168     -70788.95     
       147   87.664887     -1174.0415      0             -1169.9168     -71228.067    
       148   87.634011     -1174.04        0             -1169.9168     -71665.848    
       149   87.596884     -1174.0383      0             -1169.9168     -72102.251    
       150   87.55377      -1174.0362      0             -1169.9168     -72537.241    
       151   87.504894     -1174.0339      0             -1169.9168     -72970.773    
       152   87.450442     -1174.0314      0             -1169.9168     -73402.799    
       153   87.390561     -1174.0286      0             -1169.9168     -73833.265    
       154   87.325355     -1174.0255      0             -1169.9168     -74262.119    
       155   87.254885     -1174.0222      0             -1169.9168     -74689.298    
       156   87.17917      -1174.0186      0             -1169.9168     -75114.741    
       157   87.098181     -1174.0148      0             -1169.9168     -75538.381    
       158   87.011847     -1174.0107      0             -1169.9168     -75960.141    
       159   86.920053     -1174.0064      0             -1169.9168     -76379.949    
       160   86.822639     -1174.0018      0             -1169.9168     -76797.725    
       161   86.719401     -1173.997       0             -1169.9168     -77213.387    
       162   86.610095     -1173.9918      0             -1169.9168     -77626.847    
       163   86.494434     -1173.9864      0             -1169.9168     -78038.018    
       164   86.372092     -1173.9806      0             -1169.9168     -78446.801    
       165   86.242707     -1173.9746      0             -1169.9168     -78853.109    
       166   86.105879     -1173.9681      0             -1169.9168     -79256.842    
       167   85.961175     -1173.9613      0             -1169.9168     -79657.906    
       168   85.808132     -1173.9541      0             -1169.9168     -80056.193    
       169   85.646259     -1173.9465      0             -1169.9168     -80451.613    
       170   85.475036     -1173.9384      0             -1169.9168     -80844.058    
       171   85.293925     -1173.9299      0             -1169.9168     -81233.434    
       172   85.102364     -1173.9209      0             -1169.9168     -81619.631    
       173   84.899778     -1173.9114      0             -1169.9168     -82002.554    
       174   84.685576     -1173.9013      0             -1169.9168     -82382.101    
       175   84.459159     -1173.8907      0             -1169.9168     -82758.17     
       176   84.219919     -1173.8794      0             -1169.9168     -83130.668    
       177   83.967245     -1173.8675      0             -1169.9168     -83499.502    
       178   83.700524     -1173.855       0             -1169.9168     -83864.582    
       179   83.419148     -1173.8417      0             -1169.9168     -84225.819    
       180   83.122512     -1173.8278      0             -1169.9168     -84583.13     
       181   82.810021     -1173.8131      0             -1169.9168     -84936.436    
       182   82.48109      -1173.7976      0             -1169.9168     -85285.66     
       183   82.13515      -1173.7813      0             -1169.9168     -85630.727    
       184   81.77165      -1173.7642      0             -1169.9168     -85971.571    
       185   81.390058     -1173.7463      0             -1169.9168     -86308.123    
       186   80.989863     -1173.7274      0             -1169.9168     -86640.33     
       187   80.570583     -1173.7077      0             -1169.9168     -86968.131    
       188   80.131762     -1173.6871      0             -1169.9168     -87291.481    
       189   79.672975     -1173.6655      0             -1169.9168     -87610.335    
       190   79.193828     -1173.6429      0             -1169.9168     -87924.661    
       191   78.693965     -1173.6194      0             -1169.9168     -88234.413    
       192   78.173065     -1173.5949      0             -1169.9168     -88539.561    
       193   77.630848     -1173.5694      0             -1169.9168     -88840.075    
       194   77.067076     -1173.5429      0             -1169.9168     -89135.935    
       195   76.481552     -1173.5153      0             -1169.9168     -89427.119    
       196   75.874128     -1173.4868      0             -1169.9168     -89713.617    
       197   75.244702     -1173.4571      0             -1169.9168     -89995.424    
       198   74.593221     -1173.4265      0             -1169.9168     -90272.535    
       199   73.919685     -1173.3948      0             -1169.9168     -90544.958    
       200   73.224143     -1173.3621      0             -1169.9168     -90812.694    
       201   72.506703     -1173.3283      0             -1169.9168     -91075.757    
       202   71.767528     -1173.2935      0             -1169.9168     -91334.161    
       203   71.006838     -1173.2578      0             -1169.9168     -91587.922    
       204   70.224915     -1173.221       0             -1169.9168     -91837.059    
       205   69.422102     -1173.1832      0             -1169.9168     -92081.603    
       206   68.598802     -1173.1445      0             -1169.9168     -92321.588    
       207   67.755488     -1173.1048      0             -1169.9168     -92557.042    
       208   66.892695     -1173.0642      0             -1169.9168     -92788.002    
       209   66.011027     -1173.0227      0             -1169.9168     -93014.512    
       210   65.111154     -1172.9804      0             -1169.9168     -93236.616    
       211   64.193818     -1172.9372      0             -1169.9168     -93454.361    
       212   63.25983      -1172.8932      0             -1169.9168     -93667.798    
       213   62.310071     -1172.8486      0             -1169.9168     -93876.981    
       214   61.345493     -1172.8032      0             -1169.9168     -94081.96     
       215   60.367119     -1172.7571      0             -1169.9168     -94282.801    
       216   59.376042     -1172.7105      0             -1169.9168     -94479.564    
       217   58.373423     -1172.6633      0             -1169.9168     -94672.308    
       218   57.360491     -1172.6157      0             -1169.9168     -94861.097    
       219   56.338544     -1172.5676      0             -1169.9168     -95045.993    
       220   55.308941     -1172.5191      0             -1169.9168     -95227.066    
       221   54.273101     -1172.4704      0             -1169.9168     -95404.387    
       222   53.232503     -1172.4214      0             -1169.9168     -95578.019    
       223   52.188677     -1172.3723      0             -1169.9168     -95748.035    
       224   51.1432       -1172.3231      0             -1169.9168     -95914.51     
       225   50.097694     -1172.2739      0             -1169.9168     -96077.506    
       226   49.053815     -1172.2248      0             -1169.9168     -96237.099    
       227   48.01325      -1172.1758      0             -1169.9168     -96393.356    
       228   46.977706     -1172.1271      0             -1169.9168     -96546.346    
       229   45.948905     -1172.0787      0             -1169.9168     -96696.14     
       230   44.928575     -1172.0307      0             -1169.9168     -96842.798    
       231   43.918435     -1171.9831      0             -1169.9168     -96986.388    
       232   42.920196     -1171.9362      0             -1169.9167     -97126.97     
       233   41.935541     -1171.8898      0             -1169.9167     -97264.602    
       234   40.96612      -1171.8442      0             -1169.9167     -97399.344    
       235   40.013537     -1171.7994      0             -1169.9167     -97531.247    
       236   39.079342     -1171.7554      0             -1169.9167     -97660.358    
       237   38.165019     -1171.7124      0             -1169.9167     -97786.722    
       238   37.271977     -1171.6704      0             -1169.9167     -97910.377    
       239   36.401539     -1171.6294      0             -1169.9167     -98031.364    
       240   35.554932     -1171.5896      0             -1169.9167     -98149.713    
       241   34.73328      -1171.5509      0             -1169.9167     -98265.45     
       242   33.937599     -1171.5135      0             -1169.9167     -98378.599    
       243   33.168782     -1171.4773      0             -1169.9167     -98489.177    
       244   32.427602     -1171.4424      0             -1169.9167     -98597.193    
       245   31.7147       -1171.4089      0             -1169.9167     -98702.653    
       246   31.030588     -1171.3767      0             -1169.9167     -98805.558    
       247   30.375639     -1171.3459      0             -1169.9167     -98905.902    
       248   29.750094     -1171.3165      0             -1169.9167     -99003.676    
       249   29.154057     -1171.2884      0             -1169.9167     -99098.861    
       250   28.587501     -1171.2618      0             -1169.9167     -99191.439    
       251   28.050266     -1171.2365      0             -1169.9167     -99281.382    
       252   27.542068     -1171.2126      0             -1169.9167     -99368.664    
       253   27.062504     -1171.19        0             -1169.9167     -99453.253    
       254   26.611059     -1171.1688      0             -1169.9167     -99535.107    
       255   26.187113     -1171.1488      0             -1169.9167     -99614.192    
       256   25.789953     -1171.1301      0             -1169.9167     -99690.463    
       257   25.418781     -1171.1127      0             -1169.9167     -99763.877    
       258   25.072726     -1171.0964      0             -1169.9167     -99834.382    
       259   24.750858     -1171.0813      0             -1169.9167     -99901.937    
       260   24.452195     -1171.0672      0             -1169.9167     -99966.495    
       261   24.175722     -1171.0542      0             -1169.9167     -100028       
       262   23.920399     -1171.0422      0             -1169.9167     -100086.42    
       263   23.685177     -1171.0311      0             -1169.9167     -100141.69    
       264   23.469009     -1171.021       0             -1169.9167     -100193.77    
       265   23.270864     -1171.0117      0             -1169.9167     -100242.63    
       266   23.089736     -1171.0031      0             -1169.9167     -100288.22    
       267   22.924659     -1170.9954      0             -1169.9167     -100330.5     
       268   22.774716     -1170.9883      0             -1169.9167     -100369.43    
       269   22.639048     -1170.9819      0             -1169.9168     -100404.99    
       270   22.516864     -1170.9762      0             -1169.9168     -100437.16    
       271   22.407449     -1170.971       0             -1169.9168     -100465.9     
       272   22.310171     -1170.9665      0             -1169.9168     -100491.2     
       273   22.224483     -1170.9624      0             -1169.9168     -100513.05    
       274   22.149934     -1170.9589      0             -1169.9168     -100531.45    
       275   22.086166     -1170.9559      0             -1169.9168     -100546.38    
       276   22.032917     -1170.9534      0             -1169.9168     -100557.85    
       277   21.990024     -1170.9514      0             -1169.9168     -100565.87    
       278   21.957422     -1170.9499      0             -1169.9168     -100570.44    
       279   21.935136     -1170.9488      0             -1169.9168     -100571.6     
       280   21.923287     -1170.9483      0             -1169.9168     -100569.35    
       281   21.922081     -1170.9482      0             -1169.9168     -100563.73    
       282   21.931805     -1170.9487      0             -1169.9168     -100554.76    
       283   21.952823     -1170.9497      0             -1169.9168     -100542.48    
       284   21.985564     -1170.9512      0             -1169.9168     -100526.93    
       285   22.03052      -1170.9533      0             -1169.9168     -100508.14    
       286   22.088231     -1170.956       0             -1169.9168     -100486.16    
       287   22.15928      -1170.9594      0             -1169.9167     -100461.05    
       288   22.244279     -1170.9634      0             -1169.9167     -100432.83    
       289   22.343864     -1170.968       0             -1169.9167     -100401.57    
       290   22.458679     -1170.9734      0             -1169.9167     -100367.31    
       291   22.589367     -1170.9796      0             -1169.9167     -100330.11    
       292   22.736562     -1170.9865      0             -1169.9167     -100290       
       293   22.900873     -1170.9942      0             -1169.9167     -100247.04    
       294   23.082879     -1171.0028      0             -1169.9167     -100201.28    
       295   23.283114     -1171.0122      0             -1169.9167     -100152.76    
       296   23.502062     -1171.0225      0             -1169.9167     -100101.54    
       297   23.740142     -1171.0337      0             -1169.9167     -100047.64    
       298   23.997705     -1171.0458      0             -1169.9167     -99991.117    
       299   24.275026     -1171.0589      0             -1169.9167     -99932.001    
       300   24.57229      -1171.0729      0             -1169.9167     -99870.321    
       301   24.889596     -1171.0878      0             -1169.9167     -99806.111    
       302   25.226944     -1171.1037      0             -1169.9167     -99739.394    
       303   25.584236     -1171.1205      0             -1169.9167     -99670.189    
       304   25.961267     -1171.1382      0             -1169.9167     -99598.516    
       305   26.357732     -1171.1569      0             -1169.9167     -99524.383    
       306   26.773217     -1171.1764      0             -1169.9167     -99447.8      
       307   27.207202     -1171.1969      0             -1169.9167     -99368.768    
       308   27.659065     -1171.2181      0             -1169.9167     -99287.286    
       309   28.128079     -1171.2402      0             -1169.9167     -99203.35     
       310   28.613422     -1171.263       0             -1169.9167     -99116.951    
       311   29.114175     -1171.2866      0             -1169.9167     -99028.074    
       312   29.629334     -1171.3108      0             -1169.9167     -98936.699    
       313   30.157809     -1171.3357      0             -1169.9167     -98842.806    
       314   30.698439     -1171.3611      0             -1169.9168     -98746.37     
       315   31.249993     -1171.3871      0             -1169.9168     -98647.365    
       316   31.811182     -1171.4135      0             -1169.9168     -98545.76     
       317   32.38067      -1171.4403      0             -1169.9168     -98441.525    
       318   32.957079     -1171.4674      0             -1169.9168     -98334.626    
       319   33.539001     -1171.4948      0             -1169.9168     -98225.027    
       320   34.12501      -1171.5224      0             -1169.9168     -98112.697    
       321   34.713668     -1171.5501      0             -1169.9168     -97997.598    
       322   35.30354      -1171.5778      0             -1169.9168     -97879.688    
       323   35.893202     -1171.6056      0             -1169.9168     -97758.934    
       324   36.481249     -1171.6333      0             -1169.9168     -97635.302    
       325   37.066308     -1171.6608      0             -1169.9168     -97508.757    
       326   37.647046     -1171.6881      0             -1169.9168     -97379.265    
       327   38.222181     -1171.7152      0             -1169.9168     -97246.799    
       328   38.790485     -1171.7419      0             -1169.9168     -97111.327    
       329   39.350797     -1171.7683      0             -1169.9168     -96972.824    
       330   39.902029     -1171.7942      0             -1169.9168     -96831.269    
       331   40.443171     -1171.8197      0             -1169.9168     -96686.644    
       332   40.973295     -1171.8446      0             -1169.9168     -96538.94     
       333   41.491564     -1171.869       0             -1169.9168     -96388.14     
       334   41.997234     -1171.8928      0             -1169.9168     -96234.239    
       335   42.489653     -1171.916       0             -1169.9168     -96077.236    
       336   42.96827      -1171.9385      0             -1169.9168     -95917.135    
       337   43.43263      -1171.9604      0             -1169.9168     -95753.94     
       338   43.882377     -1171.9815      0             -1169.9168     -95587.665    
       339   44.317253     -1172.002       0             -1169.9168     -95418.325    
       340   44.737095     -1172.0217      0             -1169.9168     -95245.946    
       341   45.141834     -1172.0408      0             -1169.9168     -95070.55     
       342   45.531494     -1172.0591      0             -1169.9168     -94892.172    
       343   45.906182     -1172.0767      0             -1169.9168     -94710.846    
       344   46.266088     -1172.0937      0             -1169.9168     -94526.61     
       345   46.61148      -1172.1099      0             -1169.9168     -94339.507    
       346   46.942695     -1172.1255      0             -1169.9168     -94149.587    
       347   47.260135     -1172.1404      0             -1169.9168     -93956.896    
       348   47.56426      -1172.1547      0             -1169.9168     -93761.496    
       349   47.855582     -1172.1685      0             -1169.9168     -93563.446    
       350   48.134653     -1172.1816      0             -1169.9168     -93362.802    
       351   48.402064     -1172.1942      0             -1169.9168     -93159.626    
       352   48.658434     -1172.2062      0             -1169.9168     -92953.98     
       353   48.9044       -1172.2178      0             -1169.9168     -92745.929    
       354   49.140614     -1172.2289      0             -1169.9168     -92535.542    
       355   49.367735     -1172.2396      0             -1169.9168     -92322.886    
       356   49.586418     -1172.2499      0             -1169.9168     -92108.027    
       357   49.797312     -1172.2598      0             -1169.9168     -91891.035    
       358   50.001051     -1172.2694      0             -1169.9168     -91671.98     
       359   50.198251     -1172.2787      0             -1169.9168     -91450.931    
       360   50.389499     -1172.2877      0             -1169.9168     -91227.959    
       361   50.575354     -1172.2964      0             -1169.9168     -91003.128    
       362   50.756339     -1172.3049      0             -1169.9168     -90776.51     
       363   50.932941     -1172.3132      0             -1169.9168     -90548.169    
       364   51.105602     -1172.3213      0             -1169.9168     -90318.167    
       365   51.274723     -1172.3293      0             -1169.9168     -90086.569    
       366   51.440657     -1172.3371      0             -1169.9168     -89853.431    
       367   51.60371      -1172.3448      0             -1169.9168     -89618.812    
       368   51.764143     -1172.3523      0             -1169.9168     -89382.773    
       369   51.922167     -1172.3598      0             -1169.9168     -89145.364    
       370   52.077948     -1172.3671      0             -1169.9168     -88906.642    
       371   52.231607     -1172.3743      0             -1169.9168     -88666.649    
       372   52.383219     -1172.3815      0             -1169.9168     -88425.436    
       373   52.532822     -1172.3885      0             -1169.9168     -88183.041    
       374   52.680413     -1172.3954      0             -1169.9168     -87939.503    
       375   52.825957     -1172.4023      0             -1169.9168     -87694.865    
       376   52.969385     -1172.409       0             -1169.9168     -87449.161    
       377   53.110605     -1172.4157      0             -1169.9168     -87202.427    
       378   53.2495       -1172.4222      0             -1169.9168     -86954.696    
       379   53.385936     -1172.4286      0             -1169.9168     -86705.993    
       380   53.519767     -1172.4349      0             -1169.9168     -86456.349    
       381   53.650836     -1172.4411      0             -1169.9168     -86205.785    
       382   53.778987     -1172.4471      0             -1169.9168     -85954.33     
       383   53.904062     -1172.453       0             -1169.9168     -85702.003    
       384   54.025909     -1172.4587      0             -1169.9168     -85448.831    
       385   54.14439      -1172.4643      0             -1169.9168     -85194.832    
       386   54.25938      -1172.4697      0             -1169.9168     -84940.028    
       387   54.370774     -1172.475       0             -1169.9168     -84684.435    
       388   54.478489     -1172.48        0             -1169.9168     -84428.071    
       389   54.582471     -1172.4849      0             -1169.9168     -84170.952    
       390   54.682694     -1172.4897      0             -1169.9168     -83913.101    
       391   54.779166     -1172.4942      0             -1169.9168     -83654.537    
       392   54.871929     -1172.4986      0             -1169.9168     -83395.272    
       393   54.961064     -1172.5027      0             -1169.9168     -83135.332    
       394   55.046688     -1172.5068      0             -1169.9168     -82874.725    
       395   55.128957     -1172.5106      0             -1169.9168     -82613.475    
       396   55.208068     -1172.5144      0             -1169.9168     -82351.6      
       397   55.284258     -1172.518       0             -1169.9168     -82089.113    
       398   55.357801     -1172.5214      0             -1169.9168     -81826.03     
       399   55.429008     -1172.5248      0             -1169.9168     -81562.377    
       400   55.498229     -1172.528       0             -1169.9168     -81298.167    
       401   55.565847     -1172.5312      0             -1169.9168     -81033.418    
       402   55.632275     -1172.5343      0             -1169.9168     -80768.148    
       403   55.697958     -1172.5374      0             -1169.9168     -80502.379    
       404   55.763365     -1172.5405      0             -1169.9168     -80236.125    
       405   55.828989     -1172.5436      0             -1169.9168     -79969.405    
       406   55.895342     -1172.5467      0             -1169.9168     -79702.232    
       407   55.96295      -1172.5499      0             -1169.9168     -79434.625    
       408   56.032353     -1172.5531      0             -1169.9168     -79166.597    
       409   56.104096     -1172.5565      0             -1169.9168     -78898.158    
       410   56.17873      -1172.56        0             -1169.9168     -78629.327    
       411   56.256803     -1172.5637      0             -1169.9168     -78360.116    
       412   56.338861     -1172.5676      0             -1169.9168     -78090.537    
       413   56.425442     -1172.5716      0             -1169.9168     -77820.598    
       414   56.517072     -1172.5759      0             -1169.9168     -77550.308    
       415   56.614262     -1172.5805      0             -1169.9168     -77279.672    
       416   56.717506     -1172.5854      0             -1169.9168     -77008.694    
       417   56.827277     -1172.5905      0             -1169.9168     -76737.383    
       418   56.944026     -1172.596       0             -1169.9168     -76465.747    
       419   57.06818      -1172.6019      0             -1169.9168     -76193.784    
       420   57.200137     -1172.6081      0             -1169.9168     -75921.493    
       421   57.34027      -1172.6147      0             -1169.9168     -75648.885    
       422   57.488921     -1172.6217      0             -1169.9168     -75375.948    
       423   57.646404     -1172.6291      0             -1169.9168     -75102.682    
       424   57.813003     -1172.6369      0             -1169.9168     -74829.089    
       425   57.988971     -1172.6452      0             -1169.9168     -74555.165    
       426   58.174535     -1172.6539      0             -1169.9168     -74280.908    
       427   58.369889     -1172.6631      0             -1169.9168     -74006.318    
       428   58.575201     -1172.6728      0             -1169.9168     -73731.389    
       429   58.790611     -1172.6829      0             -1169.9168     -73456.116    
       430   59.016233     -1172.6935      0             -1169.9168     -73180.498    
       431   59.252154     -1172.7046      0             -1169.9168     -72904.538    
       432   59.498438     -1172.7162      0             -1169.9168     -72628.231    
       433   59.755124     -1172.7283      0             -1169.9168     -72351.574    
       434   60.022229     -1172.7408      0             -1169.9168     -72074.564    
       435   60.299746     -1172.7539      0             -1169.9168     -71797.202    
       436   60.587647     -1172.7675      0             -1169.9168     -71519.488    
       437   60.885881     -1172.7815      0             -1169.9168     -71241.422    
       438   61.194378     -1172.796       0             -1169.9168     -70963.005    
       439   61.513042     -1172.811       0             -1169.9168     -70684.241    
       440   61.841757     -1172.8265      0             -1169.9168     -70405.131    
       441   62.180382     -1172.8424      0             -1169.9168     -70125.683    
       442   62.528752     -1172.8588      0             -1169.9168     -69845.899    
       443   62.886675     -1172.8756      0             -1169.9168     -69565.787    
       444   63.253931     -1172.8929      0             -1169.9168     -69285.355    
       445   63.630268     -1172.9106      0             -1169.9168     -69004.618    
       446   64.015406     -1172.9287      0             -1169.9168     -68723.573    
       447   64.409024     -1172.9473      0             -1169.9168     -68442.237    
       448   64.810769     -1172.9662      0             -1169.9168     -68160.614    
       449   65.220244     -1172.9854      0             -1169.9168     -67878.718    
       450   65.637011     -1173.005       0             -1169.9168     -67596.562    
       451   66.060586     -1173.025       0             -1169.9168     -67314.151    
       452   66.490436     -1173.0452      0             -1169.9168     -67031.504    
       453   66.925978     -1173.0657      0             -1169.9168     -66748.625    
       454   67.366576     -1173.0864      0             -1169.9168     -66465.536    
       455   67.811538     -1173.1074      0             -1169.9168     -66182.238    
       456   68.260117     -1173.1285      0             -1169.9168     -65898.749    
       457   68.711506     -1173.1497      0             -1169.9168     -65615.08     
       458   69.164841     -1173.171       0             -1169.9168     -65331.238    
       459   69.619198     -1173.1924      0             -1169.9168     -65047.238    
       460   70.073593     -1173.2138      0             -1169.9168     -64763.086    
       461   70.526984     -1173.2351      0             -1169.9168     -64478.799    
       462   70.978273     -1173.2564      0             -1169.9168     -64194.384    
       463   71.426306     -1173.2775      0             -1169.9168     -63909.846    
       464   71.869874     -1173.2983      0             -1169.9168     -63625.197    
       465   72.307722     -1173.3189      0             -1169.9168     -63340.45     
       466   72.738548     -1173.3392      0             -1169.9168     -63055.612    
       467   73.161009     -1173.3591      0             -1169.9168     -62770.695    
       468   73.573724     -1173.3785      0             -1169.9168     -62485.706    
       469   73.975283     -1173.3974      0             -1169.9168     -62200.652    
       470   74.364252     -1173.4157      0             -1169.9168     -61915.543    
       471   74.739179     -1173.4334      0             -1169.9168     -61630.389    
       472   75.098602     -1173.4503      0             -1169.9168     -61345.202    
       473   75.441056     -1173.4664      0             -1169.9169     -61059.99     
       474   75.765082     -1173.4817      0             -1169.9169     -60774.764    
       475   76.069234     -1173.496       0             -1169.9169     -60489.544    
       476   76.352087     -1173.5093      0             -1169.9169     -60204.338    
       477   76.612247     -1173.5215      0             -1169.9169     -59919.163    
       478   76.848359     -1173.5326      0             -1169.9169     -59634.032    
       479   77.059115     -1173.5426      0             -1169.9169     -59348.967    
       480   77.243263     -1173.5512      0             -1169.9169     -59063.996    
       481   77.399614     -1173.5586      0             -1169.9169     -58779.136    
       482   77.527051     -1173.5646      0             -1169.9169     -58494.418    
       483   77.624538     -1173.5692      0             -1169.9169     -58209.871    
       484   77.691125     -1173.5723      0             -1169.9169     -57925.541    
       485   77.725955     -1173.574       0             -1169.9169     -57641.458    
       486   77.728271     -1173.5741      0             -1169.9169     -57357.673    
       487   77.697422     -1173.5726      0             -1169.9169     -57074.219    
       488   77.632866     -1173.5696      0             -1169.9169     -56791.144    
       489   77.534176     -1173.5649      0             -1169.9169     -56508.498    
       490   77.401042     -1173.5587      0             -1169.9169     -56226.331    
       491   77.233275     -1173.5508      0             -1169.9169     -55944.71     
       492   77.030811     -1173.5413      0             -1169.9169     -55663.693    
       493   76.793706     -1173.5301      0             -1169.9169     -55383.337    
       494   76.522141     -1173.5173      0             -1169.9169     -55103.711    
       495   76.216421     -1173.5029      0             -1169.9169     -54824.886    
       496   75.876972     -1173.487       0             -1169.9169     -54546.924    
       497   75.50434      -1173.4694      0             -1169.9169     -54269.91     
       498   75.099187     -1173.4504      0             -1169.9169     -53993.915    
       499   74.662291     -1173.4298      0             -1169.9169     -53719.016    
       500   74.194535     -1173.4078      0             -1169.9169     -53445.285    
       501   73.69691      -1173.3844      0             -1169.9169     -53172.808    
       502   73.170503     -1173.3596      0             -1169.9169     -52901.676    
       503   72.616496     -1173.3335      0             -1169.9169     -52631.966    
       504   72.036156     -1173.3062      0             -1169.9169     -52363.76     
       505   71.430828     -1173.2777      0             -1169.9169     -52097.136    
       506   70.801931     -1173.2481      0             -1169.9169     -51832.175    
       507   70.150948     -1173.2175      0             -1169.9169     -51568.955    
       508   69.479419     -1173.1859      0             -1169.9169     -51307.556    
       509   68.788933     -1173.1534      0             -1169.9169     -51048.051    
       510   68.081118     -1173.1201      0             -1169.9168     -50790.515    
       511   67.357638     -1173.0861      0             -1169.9168     -50535.023    
       512   66.620179     -1173.0514      0             -1169.9168     -50281.644    
       513   65.870446     -1173.0161      0             -1169.9168     -50030.445    
       514   65.110153     -1172.9803      0             -1169.9168     -49781.485    
       515   64.341016     -1172.9441      0             -1169.9168     -49534.823    
       516   63.564744     -1172.9076      0             -1169.9168     -49290.513    
       517   62.783034     -1172.8708      0             -1169.9168     -49048.602    
       518   61.997564     -1172.8338      0             -1169.9168     -48809.138    
       519   61.209984     -1172.7968      0             -1169.9168     -48572.163    
       520   60.421912     -1172.7597      0             -1169.9168     -48337.72     
       521   59.63493      -1172.7227      0             -1169.9168     -48105.838    
       522   58.850576     -1172.6857      0             -1169.9168     -47876.555    
       523   58.070338     -1172.649       0             -1169.9168     -47649.893    
       524   57.295656     -1172.6126      0             -1169.9168     -47425.873    
       525   56.527909     -1172.5765      0             -1169.9168     -47204.513    
       526   55.768419     -1172.5407      0             -1169.9168     -46985.823    
       527   55.018446     -1172.5054      0             -1169.9168     -46769.818    
       528   54.279185     -1172.4706      0             -1169.9168     -46556.506    
       529   53.551762     -1172.4364      0             -1169.9168     -46345.885    
       530   52.837237     -1172.4028      0             -1169.9168     -46137.947    
       531   52.136597     -1172.3698      0             -1169.9168     -45932.684    
       532   51.450762     -1172.3375      0             -1169.9168     -45730.088    
       533   50.780578     -1172.306       0             -1169.9168     -45530.145    
       534   50.12682      -1172.2753      0             -1169.9168     -45332.833    
       535   49.490193     -1172.2453      0             -1169.9167     -45138.127    
       536   48.871331     -1172.2162      0             -1169.9167     -44946.005    
       537   48.270796     -1172.1879      0             -1169.9167     -44756.435    
       538   47.689083     -1172.1605      0             -1169.9167     -44569.386    
       539   47.126617     -1172.1341      0             -1169.9167     -44384.822    
       540   46.583758     -1172.1085      0             -1169.9167     -44202.702    
       541   46.060798     -1172.0839      0             -1169.9167     -44022.98     
       542   45.557968     -1172.0603      0             -1169.9167     -43845.616    
       543   45.075433     -1172.0376      0             -1169.9167     -43670.558    
       544   44.613299     -1172.0158      0             -1169.9167     -43497.752    
       545   44.171612     -1171.995       0             -1169.9167     -43327.148    
       546   43.750361     -1171.9752      0             -1169.9167     -43158.703    
       547   43.349477     -1171.9564      0             -1169.9167     -42992.36     
       548   42.968841     -1171.9385      0             -1169.9167     -42828.065    
       549   42.608278     -1171.9215      0             -1169.9167     -42665.773    
       550   42.267565     -1171.9055      0             -1169.9167     -42505.426    
       551   41.946428     -1171.8904      0             -1169.9167     -42346.97     
       552   41.644547     -1171.8762      0             -1169.9167     -42190.355    
       553   41.361556     -1171.8628      0             -1169.9167     -42035.527    
       554   41.097044     -1171.8504      0             -1169.9167     -41882.434    
       555   40.850559     -1171.8388      0             -1169.9168     -41731.028    
       556   40.62161      -1171.828       0             -1169.9168     -41581.248    
       557   40.409662     -1171.8181      0             -1169.9168     -41433.047    
       558   40.214147     -1171.8089      0             -1169.9168     -41286.374    
       559   40.034461     -1171.8004      0             -1169.9168     -41141.177    
       560   39.869963     -1171.7927      0             -1169.9168     -40997.396    
       561   39.719984     -1171.7856      0             -1169.9168     -40854.986    
       562   39.583821     -1171.7792      0             -1169.9168     -40713.902    
       563   39.460745     -1171.7734      0             -1169.9168     -40574.1      
       564   39.35         -1171.7682      0             -1169.9168     -40435.539    
       565   39.250805     -1171.7635      0             -1169.9168     -40298.188    
       566   39.16236      -1171.7594      0             -1169.9168     -40162.01     
       567   39.083841     -1171.7557      0             -1169.9168     -40026.971    
       568   39.01441      -1171.7524      0             -1169.9168     -39893.041    
       569   38.953212     -1171.7496      0             -1169.9168     -39760.197    
       570   38.89938      -1171.747       0             -1169.9168     -39628.41     
       571   38.852038     -1171.7448      0             -1169.9168     -39497.661    
       572   38.810302     -1171.7428      0             -1169.9168     -39367.935    
       573   38.773283     -1171.7411      0             -1169.9168     -39239.214    
       574   38.740093     -1171.7395      0             -1169.9168     -39111.485    
       575   38.709843     -1171.7381      0             -1169.9168     -38984.742    
       576   38.68165      -1171.7368      0             -1169.9168     -38858.972    
       577   38.654638     -1171.7355      0             -1169.9168     -38734.171    
       578   38.627942     -1171.7343      0             -1169.9168     -38610.343    
       579   38.600713     -1171.733       0             -1169.9168     -38487.503    
       580   38.572118     -1171.7317      0             -1169.9168     -38365.661    
       581   38.541347     -1171.7302      0             -1169.9168     -38244.831    
       582   38.507615     -1171.7286      0             -1169.9168     -38125.036    
       583   38.470164     -1171.7269      0             -1169.9168     -38006.297    
       584   38.42827      -1171.7249      0             -1169.9168     -37888.646    
       585   38.381244     -1171.7227      0             -1169.9168     -37772.126    
       586   38.328435     -1171.7202      0             -1169.9168     -37656.781    
       587   38.269238     -1171.7174      0             -1169.9168     -37542.655    
       588   38.203091     -1171.7143      0             -1169.9168     -37429.812    
       589   38.129485     -1171.7108      0             -1169.9168     -37318.313    
       590   38.047963     -1171.707       0             -1169.9168     -37208.225    
       591   37.958124     -1171.7028      0             -1169.9168     -37099.619    
       592   37.859628     -1171.6982      0             -1169.9168     -36992.575    
       593   37.752197     -1171.6931      0             -1169.9168     -36887.18     
       594   37.635618     -1171.6876      0             -1169.9168     -36783.524    
       595   37.509746     -1171.6817      0             -1169.9168     -36681.702    
       596   37.374506     -1171.6753      0             -1169.9168     -36581.815    
       597   37.229895     -1171.6685      0             -1169.9168     -36483.964    
       598   37.075983     -1171.6613      0             -1169.9168     -36388.264    
       599   36.912917     -1171.6536      0             -1169.9168     -36294.831    
       600   36.740918     -1171.6455      0             -1169.9168     -36203.789    
       601   36.560283     -1171.637       0             -1169.9168     -36115.263    
       602   36.371387     -1171.6281      0             -1169.9168     -36029.386    
       603   36.174681     -1171.6189      0             -1169.9168     -35946.294    
       604   35.97069      -1171.6093      0             -1169.9168     -35866.126    
       605   35.760015     -1171.5994      0             -1169.9168     -35789.022    
       606   35.543328     -1171.5892      0             -1169.9168     -35715.131    
       607   35.321371     -1171.5787      0             -1169.9168     -35644.597    
       608   35.094956     -1171.5681      0             -1169.9168     -35577.575    
       609   34.864955     -1171.5572      0             -1169.9168     -35514.218    
       610   34.632303     -1171.5463      0             -1169.9168     -35454.681    
       611   34.39799      -1171.5353      0             -1169.9168     -35399.126    
       612   34.163058     -1171.5242      0             -1169.9168     -35347.707    
       613   33.928595     -1171.5132      0             -1169.9168     -35300.582    
       614   33.695729     -1171.5022      0             -1169.9168     -35257.903    
       615   33.465626     -1171.4914      0             -1169.9168     -35219.833    
       616   33.239478     -1171.4807      0             -1169.9168     -35186.525    
       617   33.018502     -1171.4703      0             -1169.9168     -35158.133    
       618   32.803929     -1171.4602      0             -1169.9168     -35134.813    
       619   32.597        -1171.4505      0             -1169.9168     -35116.717    
       620   32.39896      -1171.4412      0             -1169.9168     -35104.001    
       621   32.211049     -1171.4323      0             -1169.9168     -35096.815    
       622   32.034494     -1171.424       0             -1169.9168     -35095.307    
       623   31.870506     -1171.4163      0             -1169.9168     -35099.619    
       624   31.72027      -1171.4092      0             -1169.9168     -35109.89     
       625   31.58494      -1171.4029      0             -1169.9168     -35126.257    
       626   31.465631     -1171.3972      0             -1169.9168     -35148.849    
       627   31.363413     -1171.3924      0             -1169.9168     -35177.79     
       628   31.279308     -1171.3885      0             -1169.9168     -35213.208    
       629   31.214281     -1171.3854      0             -1169.9168     -35255.221    
       630   31.169233     -1171.3833      0             -1169.9168     -35303.945    
       631   31.145001     -1171.3821      0             -1169.9167     -35359.481    
       632   31.142352     -1171.382       0             -1169.9167     -35421.931    
       633   31.161974     -1171.3829      0             -1169.9167     -35491.388    
       634   31.204481     -1171.3849      0             -1169.9167     -35567.937    
       635   31.270401     -1171.388       0             -1169.9167     -35651.65     
       636   31.360179     -1171.3923      0             -1169.9167     -35742.596    
       637   31.474174     -1171.3976      0             -1169.9167     -35840.843    
       638   31.612655     -1171.4041      0             -1169.9167     -35946.44     
       639   31.775799     -1171.4118      0             -1169.9167     -36059.43     
       640   31.963695     -1171.4207      0             -1169.9167     -36179.849    
       641   32.176339     -1171.4307      0             -1169.9167     -36307.73     
       642   32.413634     -1171.4418      0             -1169.9167     -36443.094    
       643   32.675393     -1171.4541      0             -1169.9167     -36585.972    
       644   32.961339     -1171.4676      0             -1169.9167     -36736.363    
       645   33.271104     -1171.4822      0             -1169.9167     -36894.265    
       646   33.604234     -1171.4978      0             -1169.9167     -37059.673    
       647   33.960189     -1171.5146      0             -1169.9167     -37232.57     
       648   34.338346     -1171.5324      0             -1169.9167     -37412.923    
       649   34.738005     -1171.5512      0             -1169.9168     -37600.696    
       650   35.158385     -1171.571       0             -1169.9168     -37795.841    
       651   35.598637     -1171.5917      0             -1169.9168     -37998.307    
       652   36.057839     -1171.6133      0             -1169.9168     -38208.031    
       653   36.535008     -1171.6358      0             -1169.9168     -38424.943    
       654   37.029098     -1171.659       0             -1169.9168     -38648.97     
       655   37.539009     -1171.683       0             -1169.9168     -38880.027    
       656   38.063593     -1171.7077      0             -1169.9168     -39118.019    
       657   38.601655     -1171.733       0             -1169.9168     -39362.85     
       658   39.151962     -1171.7589      0             -1169.9168     -39614.413    
       659   39.713248     -1171.7853      0             -1169.9168     -39872.6      
       660   40.284221     -1171.8122      0             -1169.9168     -40137.295    
       661   40.863567     -1171.8394      0             -1169.9168     -40408.37     
       662   41.449958     -1171.867       0             -1169.9168     -40685.701    
       663   42.04206      -1171.8949      0             -1169.9168     -40969.163    
       664   42.638534     -1171.923       0             -1169.9168     -41258.638    
       665   43.238048     -1171.9512      0             -1169.9168     -41553.996    
       666   43.839281     -1171.9795      0             -1169.9168     -41855.105    
       667   44.440927     -1172.0078      0             -1169.9168     -42161.823    
       668   45.041709     -1172.0361      0             -1169.9168     -42474.01     
       669   45.640378     -1172.0642      0             -1169.9168     -42791.52     
       670   46.235721     -1172.0922      0             -1169.9168     -43114.205    
       671   46.826568     -1172.12        0             -1169.9168     -43441.921    
       672   47.411798     -1172.1476      0             -1169.9168     -43774.511    
       673   47.990342     -1172.1748      0             -1169.9168     -44111.832    
       674   48.561188     -1172.2017      0             -1169.9168     -44453.732    
       675   49.123388     -1172.2281      0             -1169.9168     -44800.067    
       676   49.676059     -1172.2541      0             -1169.9168     -45150.686    
       677   50.218385     -1172.2796      0             -1169.9168     -45505.448    
       678   50.749626     -1172.3046      0             -1169.9168     -45864.208    
       679   51.269115     -1172.3291      0             -1169.9168     -46226.819    
       680   51.77626      -1172.353       0             -1169.9168     -46593.152    
       681   52.270548     -1172.3762      0             -1169.9168     -46963.067    
       682   52.751545     -1172.3988      0             -1169.9168     -47336.428    
       683   53.218892     -1172.4208      0             -1169.9168     -47713.106    
       684   53.672311     -1172.4422      0             -1169.9168     -48092.975    
       685   54.1116       -1172.4628      0             -1169.9168     -48475.905    
       686   54.536631     -1172.4828      0             -1169.9168     -48861.776    
       687   54.947352     -1172.5022      0             -1169.9168     -49250.467    
       688   55.343778     -1172.5208      0             -1169.9168     -49641.864    
       689   55.725996     -1172.5388      0             -1169.9168     -50035.849    
       690   56.094156     -1172.5561      0             -1169.9168     -50432.31     
       691   56.448468     -1172.5728      0             -1169.9168     -50831.136    
       692   56.7892       -1172.5888      0             -1169.9168     -51232.224    
       693   57.116673     -1172.6042      0             -1169.9168     -51635.462    
       694   57.431257     -1172.619       0             -1169.9168     -52040.758    
       695   57.733362     -1172.6332      0             -1169.9168     -52448.055    
       696   58.023435     -1172.6469      0             -1169.9168     -52857.281    
       697   58.301955     -1172.66        0             -1169.9168     -53268.335    
       698   58.569432     -1172.6726      0             -1169.9168     -53681.12     
       699   58.8264       -1172.6847      0             -1169.9168     -54095.535    
       700   59.073415     -1172.6963      0             -1169.9168     -54511.491    
       701   59.311045     -1172.7074      0             -1169.9168     -54928.906    
       702   59.53987      -1172.7182      0             -1169.9168     -55347.68     
       703   59.760479     -1172.7286      0             -1169.9168     -55767.716    
       704   59.973464     -1172.7386      0             -1169.9168     -56188.916    
       705   60.179417     -1172.7483      0             -1169.9168     -56611.177    
       706   60.378929     -1172.7577      0             -1169.9168     -57034.403    
       707   60.572584     -1172.7668      0             -1169.9168     -57458.5      
       708   60.760956     -1172.7757      0             -1169.9168     -57883.369    
       709   60.94461      -1172.7843      0             -1169.9168     -58308.911    
       710   61.124096     -1172.7927      0             -1169.9168     -58735.026    
       711   61.299947     -1172.801       0             -1169.9168     -59161.616    
       712   61.472682     -1172.8091      0             -1169.9168     -59588.576    
       713   61.642797     -1172.8171      0             -1169.9168     -60015.821    
       714   61.810772     -1172.825       0             -1169.9168     -60443.251    
       715   61.977063     -1172.8329      0             -1169.9168     -60870.768    
       716   62.142109     -1172.8406      0             -1169.9168     -61298.267    
       717   62.306326     -1172.8484      0             -1169.9168     -61725.652    
       718   62.470108     -1172.8561      0             -1169.9168     -62152.835    
       719   62.63383      -1172.8638      0             -1169.9168     -62579.717    
       720   62.797847     -1172.8715      0             -1169.9168     -63006.208    
       721   62.962493     -1172.8792      0             -1169.9168     -63432.206    
       722   63.128085     -1172.887       0             -1169.9168     -63857.621    
       723   63.294923     -1172.8949      0             -1169.9168     -64282.369    
       724   63.46329      -1172.9028      0             -1169.9168     -64706.36     
       725   63.633453     -1172.9108      0             -1169.9168     -65129.502    
       726   63.805669     -1172.9189      0             -1169.9168     -65551.713    
       727   63.980179     -1172.9271      0             -1169.9168     -65972.906    
       728   64.157216     -1172.9354      0             -1169.9168     -66393.002    
       729   64.337003     -1172.9439      0             -1169.9168     -66811.913    
       730   64.519755     -1172.9525      0             -1169.9168     -67229.565    
       731   64.705678     -1172.9612      0             -1169.9168     -67645.883    
       732   64.894975     -1172.9701      0             -1169.9168     -68060.786    
       733   65.087842     -1172.9792      0             -1169.9168     -68474.206    
       734   65.284469     -1172.9885      0             -1169.9168     -68886.071    
       735   65.485044     -1172.9979      0             -1169.9168     -69296.309    
       736   65.689751     -1173.0075      0             -1169.9168     -69704.852    
       737   65.898768     -1173.0174      0             -1169.9168     -70111.635    
       738   66.11227      -1173.0274      0             -1169.9168     -70516.599    
       739   66.330428     -1173.0377      0             -1169.9168     -70919.684    
       740   66.553405     -1173.0482      0             -1169.9168     -71320.825    
       741   66.78136      -1173.0589      0             -1169.9168     -71719.965    
       742   67.01444      -1173.0698      0             -1169.9168     -72117.054    
       743   67.252786     -1173.0811      0             -1169.9168     -72512.041    
       744   67.496525     -1173.0925      0             -1169.9168     -72904.87     
       745   67.745768     -1173.1043      0             -1169.9168     -73295.5      
       746   68.000614     -1173.1162      0             -1169.9168     -73683.881    
       747   68.26114      -1173.1285      0             -1169.9168     -74069.968    
       748   68.527399     -1173.141       0             -1169.9168     -74453.716    
       749   68.799422     -1173.1538      0             -1169.9168     -74835.087    
       750   69.07721      -1173.1669      0             -1169.9168     -75214.04     
       751   69.360733     -1173.1802      0             -1169.9168     -75590.532    
       752   69.649927     -1173.1938      0             -1169.9168     -75964.524    
       753   69.944688     -1173.2077      0             -1169.9168     -76335.981    
       754   70.244871     -1173.2218      0             -1169.9168     -76704.863    
       755   70.550288     -1173.2362      0             -1169.9168     -77071.134    
       756   70.860701     -1173.2508      0             -1169.9168     -77434.76     
       757   71.175824     -1173.2656      0             -1169.9168     -77795.706    
       758   71.495316     -1173.2807      0             -1169.9168     -78153.942    
       759   71.818785     -1173.2959      0             -1169.9168     -78509.43     
       760   72.145777     -1173.3113      0             -1169.9168     -78862.141    
       761   72.475783     -1173.3268      0             -1169.9168     -79212.045    
       762   72.808233     -1173.3425      0             -1169.9168     -79559.114    
       763   73.142495     -1173.3582      0             -1169.9168     -79903.317    
       764   73.477877     -1173.374       0             -1169.9168     -80244.626    
       765   73.813626     -1173.3898      0             -1169.9168     -80583.015    
       766   74.148928     -1173.4055      0             -1169.9168     -80918.458    
       767   74.482908     -1173.4213      0             -1169.9168     -81250.924    
       768   74.814635     -1173.4369      0             -1169.9168     -81580.393    
       769   75.14312      -1173.4523      0             -1169.9168     -81906.832    
       770   75.467321     -1173.4676      0             -1169.9168     -82230.221    
       771   75.786145     -1173.4826      0             -1169.9168     -82550.542    
       772   76.098452     -1173.4973      0             -1169.9168     -82867.77     
       773   76.403058     -1173.5116      0             -1169.9168     -83181.881    
       774   76.69874      -1173.5255      0             -1169.9168     -83492.852    
       775   76.984241     -1173.539       0             -1169.9168     -83800.667    
       776   77.258275     -1173.5519      0             -1169.9168     -84105.306    
       777   77.519531     -1173.5642      0             -1169.9168     -84406.753    
       778   77.766682     -1173.5758      0             -1169.9168     -84704.996    
       779   77.998387     -1173.5867      0             -1169.9168     -85000.021    
       780   78.2133       -1173.5968      0             -1169.9168     -85291.806    
       781   78.410077     -1173.6061      0             -1169.9168     -85580.346    
       782   78.587379     -1173.6144      0             -1169.9169     -85865.628    
       783   78.743883     -1173.6218      0             -1169.9169     -86147.639    
       784   78.878284     -1173.6281      0             -1169.9169     -86426.366    
       785   78.989308     -1173.6334      0             -1169.9169     -86701.813    
       786   79.07571      -1173.6374      0             -1169.9169     -86973.971    
       787   79.136289     -1173.6403      0             -1169.9169     -87242.835    
       788   79.169889     -1173.6419      0             -1169.9169     -87508.411    
       789   79.175406     -1173.6421      0             -1169.9169     -87770.7      
       790   79.151796     -1173.641       0             -1169.9169     -88029.701    
       791   79.098078     -1173.6385      0             -1169.9169     -88285.422    
       792   79.013343     -1173.6345      0             -1169.9169     -88537.874    
       793   78.896752     -1173.629       0             -1169.9169     -88787.07     
       794   78.747548     -1173.622       0             -1169.9169     -89033.028    
       795   78.565056     -1173.6134      0             -1169.9169     -89275.765    
       796   78.34869      -1173.6033      0             -1169.9169     -89515.31     
       797   78.097952     -1173.5915      0             -1169.9169     -89751.675    
       798   77.812438     -1173.578       0             -1169.9169     -89984.904    
       799   77.491842     -1173.5629      0             -1169.9169     -90215.025    
       800   77.135953     -1173.5462      0             -1169.9169     -90442.069    
       801   76.744663     -1173.5278      0             -1169.9169     -90666.092    
       802   76.317964     -1173.5077      0             -1169.9169     -90887.138    
       803   75.855951     -1173.486       0             -1169.9169     -91105.248    
       804   75.358824     -1173.4626      0             -1169.9169     -91320.487    
       805   74.826882     -1173.4376      0             -1169.9169     -91532.9      
       806   74.260534     -1173.4109      0             -1169.9169     -91742.554    
       807   73.660288     -1173.3827      0             -1169.9169     -91949.518    
       808   73.026756     -1173.3528      0             -1169.9169     -92153.858    
       809   72.360653     -1173.3215      0             -1169.9169     -92355.649    
       810   71.662794     -1173.2887      0             -1169.9169     -92554.973    
       811   70.934093     -1173.2544      0             -1169.9169     -92751.905    
       812   70.175561     -1173.2187      0             -1169.9169     -92946.531    
       813   69.388309     -1173.1816      0             -1169.9169     -93138.934    
       814   68.573536     -1173.1433      0             -1169.9169     -93329.209    
       815   67.732535     -1173.1037      0             -1169.9169     -93517.447    
       816   66.866687     -1173.063       0             -1169.9169     -93703.744    
       817   65.977458     -1173.0211      0             -1169.9169     -93888.192    
       818   65.066398     -1172.9783      0             -1169.9169     -94070.897    
       819   64.135133     -1172.9345      0             -1169.9168     -94251.955    
       820   63.185365     -1172.8898      0             -1169.9168     -94431.469    
       821   62.218867     -1172.8443      0             -1169.9168     -94609.547    
       822   61.237479     -1172.7981      0             -1169.9168     -94786.283    
       823   60.243101     -1172.7513      0             -1169.9168     -94961.794    
       824   59.237692     -1172.704       0             -1169.9168     -95136.183    
       825   58.22326      -1172.6563      0             -1169.9168     -95309.552    
       826   57.201859     -1172.6082      0             -1169.9168     -95482.01     
       827   56.175584     -1172.5599      0             -1169.9168     -95653.662    
       828   55.146561     -1172.5115      0             -1169.9168     -95824.609    
       829   54.116945     -1172.463       0             -1169.9168     -95994.952    
       830   53.088907     -1172.4147      0             -1169.9168     -96164.793    
       831   52.064633     -1172.3665      0             -1169.9168     -96334.223    
       832   51.046312     -1172.3185      0             -1169.9168     -96503.339    
       833   50.036128     -1172.271       0             -1169.9168     -96672.236    
       834   49.036256     -1172.2239      0             -1169.9168     -96840.999    
       835   48.048849     -1172.1775      0             -1169.9168     -97009.717    
       836   47.07603      -1172.1317      0             -1169.9167     -97178.463    
       837   46.119888     -1172.0867      0             -1169.9167     -97347.317    
       838   45.18246      -1172.0426      0             -1169.9167     -97516.346    
       839   44.265735     -1171.9995      0             -1169.9167     -97685.612    
       840   43.371632     -1171.9574      0             -1169.9167     -97855.175    
       841   42.502        -1171.9165      0             -1169.9167     -98025.09     
       842   41.658607     -1171.8768      0             -1169.9167     -98195.397    
       843   40.843131     -1171.8384      0             -1169.9167     -98366.139    
       844   40.057154     -1171.8014      0             -1169.9167     -98537.345    
       845   39.302149     -1171.7659      0             -1169.9167     -98709.041    
       846   38.579482     -1171.7319      0             -1169.9167     -98881.242    
       847   37.890396     -1171.6995      0             -1169.9167     -99053.954    
       848   37.236012     -1171.6687      0             -1169.9167     -99227.175    
       849   36.617316     -1171.6396      0             -1169.9167     -99400.901    
       850   36.035163     -1171.6122      0             -1169.9167     -99575.115    
       851   35.490264     -1171.5865      0             -1169.9167     -99749.786    
       852   34.983189     -1171.5627      0             -1169.9167     -99924.88     
       853   34.51436      -1171.5406      0             -1169.9167     -100100.36    
       854   34.084052     -1171.5204      0             -1169.9167     -100276.16    
       855   33.69239      -1171.5019      0             -1169.9167     -100452.24    
       856   33.339348     -1171.4853      0             -1169.9167     -100628.51    
       857   33.024751     -1171.4705      0             -1169.9167     -100804.91    
       858   32.748279     -1171.4575      0             -1169.9167     -100981.35    
       859   32.509462     -1171.4463      0             -1169.9167     -101157.73    
       860   32.307689     -1171.4368      0             -1169.9167     -101333.95    
       861   32.142212     -1171.429       0             -1169.9167     -101509.91    
       862   32.012144     -1171.4229      0             -1169.9167     -101685.49    
       863   31.916472     -1171.4184      0             -1169.9167     -101860.57    
       864   31.854058     -1171.4155      0             -1169.9167     -102035.02    
       865   31.823647     -1171.414       0             -1169.9167     -102208.7     
       866   31.823874     -1171.414       0             -1169.9167     -102381.48    
       867   31.853271     -1171.4154      0             -1169.9167     -102553.21    
       868   31.910276     -1171.4181      0             -1169.9167     -102723.74    
       869   31.993239     -1171.422       0             -1169.9167     -102892.91    
       870   32.100433     -1171.4271      0             -1169.9167     -103060.57    
       871   32.230063     -1171.4332      0             -1169.9167     -103226.56    
       872   32.380274     -1171.4403      0             -1169.9167     -103390.71    
       873   32.549158     -1171.4482      0             -1169.9167     -103552.86    
       874   32.734769     -1171.4569      0             -1169.9167     -103712.85    
       875   32.935127     -1171.4664      0             -1169.9168     -103870.5     
       876   33.148231     -1171.4764      0             -1169.9168     -104025.64    
       877   33.372066     -1171.4869      0             -1169.9168     -104178.12    
       878   33.604612     -1171.4979      0             -1169.9168     -104327.76    
       879   33.843857     -1171.5092      0             -1169.9168     -104474.39    
       880   34.087799     -1171.5206      0             -1169.9168     -104617.87    
       881   34.334461     -1171.5322      0             -1169.9168     -104758.01    
       882   34.581895     -1171.5439      0             -1169.9168     -104894.66    
       883   34.828195     -1171.5555      0             -1169.9168     -105027.67    
       884   35.071499     -1171.5669      0             -1169.9168     -105156.89    
       885   35.31         -1171.5782      0             -1169.9168     -105282.16    
       886   35.541952     -1171.5891      0             -1169.9168     -105403.35    
       887   35.765678     -1171.5996      0             -1169.9168     -105520.32    
       888   35.979573     -1171.6097      0             -1169.9168     -105632.93    
       889   36.182116     -1171.6192      0             -1169.9168     -105741.07    
       890   36.371868     -1171.6282      0             -1169.9168     -105844.6     
       891   36.547485     -1171.6364      0             -1169.9168     -105943.43    
       892   36.707717     -1171.644       0             -1169.9168     -106037.43    
       893   36.851413     -1171.6507      0             -1169.9168     -106126.52    
       894   36.97753      -1171.6567      0             -1169.9168     -106210.6     
       895   37.085128     -1171.6617      0             -1169.9168     -106289.58    
       896   37.173383     -1171.6659      0             -1169.9168     -106363.4     
       897   37.241581     -1171.6691      0             -1169.9168     -106431.98    
       898   37.289124     -1171.6713      0             -1169.9168     -106495.26    
       899   37.315535     -1171.6726      0             -1169.9168     -106553.2     
       900   37.320451     -1171.6728      0             -1169.9169     -106605.74    
       901   37.303632     -1171.672       0             -1169.9169     -106652.85    
       902   37.264957     -1171.6702      0             -1169.9169     -106694.52    
       903   37.204425     -1171.6673      0             -1169.9168     -106730.71    
       904   37.122156     -1171.6635      0             -1169.9168     -106761.42    
       905   37.018387     -1171.6586      0             -1169.9168     -106786.65    
       906   36.893473     -1171.6527      0             -1169.9168     -106806.4     
       907   36.747883     -1171.6459      0             -1169.9168     -106820.7     
       908   36.582201     -1171.6381      0             -1169.9168     -106829.55    
       909   36.39712      -1171.6293      0             -1169.9168     -106832.99    
       910   36.193439     -1171.6198      0             -1169.9168     -106831.07    
       911   35.972061     -1171.6093      0             -1169.9168     -106823.82    
       912   35.733988     -1171.5981      0             -1169.9168     -106811.3     
       913   35.480315     -1171.5862      0             -1169.9168     -106793.57    
       914   35.212226     -1171.5736      0             -1169.9168     -106770.69    
       915   34.93099      -1171.5603      0             -1169.9168     -106742.73    
       916   34.637951     -1171.5466      0             -1169.9168     -106709.78    
       917   34.334528     -1171.5323      0             -1169.9168     -106671.92    
       918   34.0222       -1171.5176      0             -1169.9168     -106629.22    
       919   33.702506     -1171.5025      0             -1169.9168     -106581.79    
       920   33.377035     -1171.4872      0             -1169.9168     -106529.73    
       921   33.04742      -1171.4717      0             -1169.9168     -106473.13    
       922   32.715325     -1171.4561      0             -1169.9168     -106412.1     
       923   32.382446     -1171.4404      0             -1169.9168     -106346.76    
       924   32.050492     -1171.4248      0             -1169.9168     -106277.19    
       925   31.721187     -1171.4093      0             -1169.9168     -106203.53    
       926   31.396255     -1171.394       0             -1169.9168     -106125.87    
       927   31.077412     -1171.379       0             -1169.9168     -106044.34    
       928   30.766363     -1171.3643      0             -1169.9168     -105959.06    
       929   30.464786     -1171.3501      0             -1169.9167     -105870.13    
       930   30.174329     -1171.3365      0             -1169.9167     -105777.67    
       931   29.896602     -1171.3234      0             -1169.9167     -105681.8     
       932   29.633166     -1171.311       0             -1169.9167     -105582.64    
       933   29.38553      -1171.2993      0             -1169.9167     -105480.29    
       934   29.155139     -1171.2885      0             -1169.9167     -105374.87    
       935   28.943371     -1171.2785      0             -1169.9167     -105266.47    
       936   28.751528     -1171.2695      0             -1169.9167     -105155.22    
       937   28.580833     -1171.2615      0             -1169.9167     -105041.21    
       938   28.432421     -1171.2545      0             -1169.9167     -104924.54    
       939   28.307339     -1171.2486      0             -1169.9167     -104805.31    
       940   28.206536     -1171.2438      0             -1169.9167     -104683.61    
       941   28.130864     -1171.2403      0             -1169.9167     -104559.53    
       942   28.081074     -1171.2379      0             -1169.9167     -104433.16    
       943   28.057811     -1171.2368      0             -1169.9167     -104304.58    
       944   28.061616     -1171.237       0             -1169.9167     -104173.86    
       945   28.092923     -1171.2385      0             -1169.9167     -104041.07    
       946   28.152059     -1171.2413      0             -1169.9167     -103906.29    
       947   28.239242     -1171.2454      0             -1169.9167     -103769.58    
       948   28.354586     -1171.2508      0             -1169.9167     -103630.99    
       949   28.498102     -1171.2576      0             -1169.9167     -103490.58    
       950   28.669696     -1171.2656      0             -1169.9167     -103348.4     
       951   28.869175     -1171.275       0             -1169.9167     -103204.49    
       952   29.096251     -1171.2857      0             -1169.9167     -103058.9     
       953   29.350544     -1171.2977      0             -1169.9167     -102911.65    
       954   29.631583     -1171.3109      0             -1169.9167     -102762.79    
       955   29.938817     -1171.3253      0             -1169.9167     -102612.34    
       956   30.271614     -1171.341       0             -1169.9167     -102460.32    
       957   30.62927      -1171.3578      0             -1169.9167     -102306.76    
       958   31.011014     -1171.3758      0             -1169.9167     -102151.67    
       959   31.416013     -1171.3949      0             -1169.9167     -101995.07    
       960   31.843379     -1171.415       0             -1169.9167     -101836.96    
       961   32.292172     -1171.4361      0             -1169.9167     -101677.36    
       962   32.761414     -1171.4582      0             -1169.9167     -101516.26    
       963   33.250085     -1171.4812      0             -1169.9167     -101353.69    
       964   33.757137     -1171.505       0             -1169.9167     -101189.63    
       965   34.281496     -1171.5297      0             -1169.9167     -101024.08    
       966   34.822071     -1171.5551      0             -1169.9167     -100857.05    
       967   35.377755     -1171.5813      0             -1169.9167     -100688.52    
       968   35.947434     -1171.6081      0             -1169.9167     -100518.5     
       969   36.529992     -1171.6355      0             -1169.9167     -100346.98    
       970   37.124315     -1171.6635      0             -1169.9168     -100173.95    
       971   37.729296     -1171.6919      0             -1169.9168     -99999.406    
       972   38.343837     -1171.7209      0             -1169.9168     -99823.34     
       973   38.966857     -1171.7502      0             -1169.9168     -99645.742    
       974   39.597291     -1171.7798      0             -1169.9168     -99466.612    
       975   40.234096     -1171.8098      0             -1169.9168     -99285.946    
       976   40.876251     -1171.84        0             -1169.9168     -99103.729    
       977   41.522762     -1171.8704      0             -1169.9168     -98919.959    
       978   42.172662     -1171.901       0             -1169.9168     -98734.632    
       979   42.825011     -1171.9317      0             -1169.9168     -98547.74     
       980   43.478901     -1171.9625      0             -1169.9168     -98359.279    
       981   44.133451     -1171.9933      0             -1169.9168     -98169.25     
       982   44.787812     -1172.0241      0             -1169.9168     -97977.646    
       983   45.441166     -1172.0548      0             -1169.9168     -97784.47     
       984   46.092723     -1172.0855      0             -1169.9168     -97589.722    
       985   46.741723     -1172.116       0             -1169.9168     -97393.401    
       986   47.387435     -1172.1464      0             -1169.9168     -97195.51     
       987   48.029154     -1172.1766      0             -1169.9168     -96996.055    
       988   48.6662       -1172.2066      0             -1169.9168     -96795.047    
       989   49.297921     -1172.2363      0             -1169.9168     -96592.484    
       990   49.923686     -1172.2657      0             -1169.9168     -96388.374    
       991   50.542884     -1172.2949      0             -1169.9168     -96182.726    
       992   51.154927     -1172.3237      0             -1169.9168     -95975.545    
       993   51.759245     -1172.3521      0             -1169.9168     -95766.846    
       994   52.355284     -1172.3802      0             -1169.9168     -95556.639    
       995   52.942506     -1172.4078      0             -1169.9168     -95344.933    
       996   53.520389     -1172.435       0             -1169.9168     -95131.748    
       997   54.088423     -1172.4617      0             -1169.9168     -94917.093    
       998   54.646111     -1172.488       0             -1169.9168     -94700.985    
       999   55.192966     -1172.5137      0             -1169.9168     -94483.437    
      1000   55.728515     -1172.5389      0             -1169.9168     -94264.467    
Loop time of 0.549333 on 1 procs for 1000 steps with 365 atoms

Performance: 157.282 ns/day, 0.153 hours/ns, 1820.389 timesteps/s
99.3% CPU use with 1 MPI tasks x no OpenMP threads

MPI task timing breakdown:
Section |  min time  |  avg time  |  max time  |%varavg| %total
---------------------------------------------------------------
Pair    | 0.53156    | 0.53156    | 0.53156    |   0.0 | 96.76
Neigh   | 0.0050128  | 0.0050128  | 0.0050128  |   0.0 |  0.91
Comm    | 0.0031135  | 0.0031135  | 0.0031135  |   0.0 |  0.57
Output  | 0.0069033  | 0.0069033  | 0.0069033  |   0.0 |  1.26
Modify  | 0.0018874  | 0.0018874  | 0.0018874  |   0.0 |  0.34
Other   |            | 0.0008573  |            |       |  0.16

Nlocal:            365 ave         365 max         365 min
Histogram: 1 0 0 0 0 0 0 0 0 0
Nghost:           1336 ave        1336 max        1336 min
Histogram: 1 0 0 0 0 0 0 0 0 0
Neighs:          12871 ave       12871 max       12871 min
Histogram: 1 0 0 0 0 0 0 0 0 0

Total # of neighbors = 12871
Ave neighs/atom = 35.263014
Neighbor list builds = 17
Dangerous builds = 0
Total wall time: 0:00:00
