ITEM: TIMESTEP
0
ITEM: NUMBER OF ATOMS
365
ITEM: BOX BOUNDS pp pp pp
0.0000000000000000e+00 1.7909549999999999e+01
0.0000000000000000e+00 1.7909549999999999e+01
0.0000000000000000e+00 1.7909549999999999e+01
ITEM: ATOMS id type xs ys zs
1 1 0.1 0.1 0.1
23 1 0.3 0.1 0.1
73 1 0.5 0.1 0.1
27 1 0.7 0.1 0.1
5 1 0.9 0.1 0.1
31 1 0.1 0.3 0.1
13 1 0.2 0.2 0.1
112 1 0.3 0.3 0.1
61 1 0.4 0.2 0.1
188 1 0.5 0.3 0.1
92 1 0.6 0.2 0.1
116 1 0.7 0.3 0.1
33 1 0.9 0.3 0.1
63 1 0.8 0.2 0.1
77 1 0.1 0.5 0.1
65 1 0.2 0.4 0.1
176 1 0.3 0.5 0.1
160 1 0.4 0.4 0.1
244 1 0.5 0.5 0.1
178 1 0.7 0.5 0.1
236 1 0.6 0.4 0.1
79 1 0.9 0.5 0.1
164 1 0.8 0.4 0.1
35 1 0.1 0.7 0.1
94 1 0.2 0.6 0.1
118 1 0.3 0.7 0.1
190 1 0.5 0.7 0.1
228 1 0.4 0.6 0.1
114 1 0.7 0.7 0.1
256 1 0.6 0.6 0.1
37 1 0.9 0.7 0.1
230 1 0.8 0.6 0.1
3 1 0.1 0.9 0.1
25 1 0.3 0.9 0.1
67 1 0.2 0.8 0.1
75 1 0.5 0.9 0.1
166 1 0.4 0.8 0.1
29 1 0.7 0.9 0.1
238 1 0.6 0.8 0.1
7 1 0.9 0.9 0.1
162 1 0.8 0.8 0.1
15 1 0.1 0.1 0.3
11 1 0.2 0.1 0.2
104 1 0.3 0.1 0.3
53 1 0.4 0.1 0.2
172 1 0.5 0.1 0.3
88 1 0.6 0.1 0.2
110 1 0.7 0.1 0.3
17 1 0.9 0.1 0.3
55 1 0.8 0.1 0.2
9 1 0.1 0.2 0.2
96 1 0.1 0.3 0.3
43 1 0.3 0.2 0.2
57 1 0.2 0.3 0.2
59 1 0.2 0.2 0.3
258 1 0.3 0.3 0.3
83 1 0.5 0.2 0.2
148 1 0.4 0.3 0.2
156 1 0.4 0.2 0.3
294 1 0.5 0.3 0.3
44 1 0.7 0.2 0.2
222 1 0.6 0.3 0.2
226 1 0.6 0.2 0.3
265 1 0.7 0.3 0.3
10 1 0.9 0.2 0.2
97 1 0.9 0.3 0.3
150 1 0.8 0.3 0.2
159 1 0.8 0.2 0.3
45 1 0.1 0.4 0.2
186 1 0.1 0.5 0.3
90 1 0.2 0.5 0.2
132 1 0.3 0.4 0.2
152 1 0.2 0.4 0.3
298 1 0.3 0.5 0.3
206 1 0.5 0.4 0.2
214 1 0.4 0.5 0.2
282 1 0.4 0.4 0.3
342 1 0.5 0.5 0.3
134 1 0.7 0.4 0.2
253 1 0.6 0.5 0.2
301 1 0.7 0.5 0.3
330 1 0.6 0.4 0.3
46 1 0.9 0.4 0.2
187 1 0.9 0.5 0.3
215 1 0.8 0.5 0.2
289 1 0.8 0.4 0.3
84 1 0.1 0.6 0.2
100 1 0.1 0.7 0.3
58 1 0.2 0.7 0.2
198 1 0.3 0.6 0.2
235 1 0.2 0.6 0.3
263 1 0.3 0.7 0.3
151 1 0.4 0.7 0.2
249 1 0.5 0.6 0.2
296 1 0.5 0.7 0.3
334 1 0.4 0.6 0.3
199 1 0.7 0.6 0.2
223 1 0.6 0.7 0.2
260 1 0.7 0.7 0.3
360 1 0.6 0.6 0.3
85 1 0.9 0.6 0.2
101 1 0.9 0.7 0.3
149 1 0.8 0.7 0.2
337 1 0.8 0.6 0.3
16 1 0.1 0.9 0.3
47 1 0.1 0.8 0.2
12 1 0.2 0.9 0.2
105 1 0.3 0.9 0.3
135 1 0.3 0.8 0.2
154 1 0.2 0.8 0.3
54 1 0.4 0.9 0.2
173 1 0.5 0.9 0.3
207 1 0.5 0.8 0.2
287 1 0.4 0.8 0.3
89 1 0.6 0.9 0.2
111 1 0.7 0.9 0.3
133 1 0.7 0.8 0.2
332 1 0.6 0.8 0.3
18 1 0.9 0.9 0.3
48 1 0.9 0.8 0.2
56 1 0.8 0.9 0.2
284 1 0.8 0.8 0.3
69 1 0.1 0.1 0.5
49 1 0.2 0.1 0.4
180 1 0.3 0.1 0.5
140 1 0.4 0.1 0.4
242 1 0.5 0.1 0.5
182 1 0.7 0.1 0.5
210 1 0.6 0.1 0.4
71 1 0.9 0.1 0.5
146 1 0.8 0.1 0.4
39 1 0.1 0.2 0.4
168 1 0.1 0.3 0.5
91 1 0.2 0.2 0.5
128 1 0.3 0.2 0.4
136 1 0.2 0.3 0.4
290 1 0.3 0.3 0.5
196 1 0.5 0.2 0.4
232 1 0.4 0.2 0.5
274 1 0.4 0.3 0.4
340 1 0.5 0.3 0.5
131 1 0.7 0.2 0.4
255 1 0.6 0.2 0.5
292 1 0.7 0.3 0.5
318 1 0.6 0.3 0.4
40 1 0.9 0.2 0.4
169 1 0.9 0.3 0.5
233 1 0.8 0.2 0.5
281 1 0.8 0.3 0.4
120 1 0.1 0.4 0.4
240 1 0.1 0.5 0.5
221 1 0.2 0.5 0.4
224 1 0.2 0.4 0.5
266 1 0.3 0.4 0.4
338 1 0.3 0.5 0.5
306 1 0.5 0.4 0.4
322 1 0.4 0.5 0.4
326 1 0.4 0.4 0.5
362 1 0.5 0.5 0.5
273 1 0.7 0.4 0.4
339 1 0.7 0.5 0.5
354 1 0.6 0.5 0.4
358 1 0.6 0.4 0.5
121 1 0.9 0.4 0.4
241 1 0.9 0.5 0.5
325 1 0.8 0.5 0.4
328 1 0.8 0.4 0.5
170 1 0.1 0.7 0.5
204 1 0.1 0.6 0.4
138 1 0.2 0.7 0.4
254 1 0.2 0.6 0.5
293 1 0.3 0.7 0.5
310 1 0.3 0.6 0.4
279 1 0.4 0.7 0.4
341 1 0.5 0.7 0.5
348 1 0.5 0.6 0.4
356 1 0.4 0.6 0.5
291 1 0.7 0.7 0.5
313 1 0.7 0.6 0.4
320 1 0.6 0.7 0.4
365 1 0.6 0.6 0.5
171 1 0.9 0.7 0.5
205 1 0.9 0.6 0.4
276 1 0.8 0.7 0.4
357 1 0.8 0.6 0.5
70 1 0.1 0.9 0.5
124 1 0.1 0.8 0.4
50 1 0.2 0.9 0.4
181 1 0.3 0.9 0.5
225 1 0.2 0.8 0.5
271 1 0.3 0.8 0.4
141 1 0.4 0.9 0.4
243 1 0.5 0.9 0.5
308 1 0.5 0.8 0.4
329 1 0.4 0.8 0.5
183 1 0.7 0.9 0.5
211 1 0.6 0.9 0.4
268 1 0.7 0.8 0.4
359 1 0.6 0.8 0.5
72 1 0.9 0.9 0.5
125 1 0.9 0.8 0.4
147 1 0.8 0.9 0.4
327 1 0.8 0.8 0.5
19 1 0.1 0.1 0.7
86 1 0.2 0.1 0.6
108 1 0.3 0.1 0.7
174 1 0.5 0.1 0.7
216 1 0.4 0.1 0.6
106 1 0.7 0.1 0.7
251 1 0.6 0.1 0.6
21 1 0.9 0.1 0.7
218 1 0.8 0.1 0.6
81 1 0.1 0.2 0.6
102 1 0.1 0.3 0.7
60 1 0.2 0.2 0.7
200 1 0.3 0.2 0.6
208 1 0.2 0.3 0.6
261 1 0.3 0.3 0.7
158 1 0.4 0.2 0.7
248 1 0.5 0.2 0.6
297 1 0.5 0.3 0.7
314 1 0.4 0.3 0.6
201 1 0.7 0.2 0.6
227 1 0.6 0.2 0.7
262 1 0.7 0.3 0.7
352 1 0.6 0.3 0.6
82 1 0.9 0.2 0.6
103 1 0.9 0.3 0.7
157 1 0.8 0.2 0.7
316 1 0.8 0.3 0.6
184 1 0.1 0.5 0.7
192 1 0.1 0.4 0.6
155 1 0.2 0.4 0.7
250 1 0.2 0.5 0.6
300 1 0.3 0.5 0.7
302 1 0.3 0.4 0.6
285 1 0.4 0.4 0.7
343 1 0.5 0.5 0.7
346 1 0.5 0.4 0.6
350 1 0.4 0.5 0.6
299 1 0.7 0.5 0.7
304 1 0.7 0.4 0.6
333 1 0.6 0.4 0.7
364 1 0.6 0.5 0.6
185 1 0.9 0.5 0.7
193 1 0.9 0.4 0.6
286 1 0.8 0.4 0.7
351 1 0.8 0.5 0.6
98 1 0.1 0.7 0.7
246 1 0.1 0.6 0.6
209 1 0.2 0.7 0.6
234 1 0.2 0.6 0.7
264 1 0.3 0.7 0.7
344 1 0.3 0.6 0.6
295 1 0.5 0.7 0.7
317 1 0.4 0.7 0.6
336 1 0.4 0.6 0.7
363 1 0.5 0.6 0.6
259 1 0.7 0.7 0.7
345 1 0.7 0.6 0.6
353 1 0.6 0.7 0.6
361 1 0.6 0.6 0.7
99 1 0.9 0.7 0.7
247 1 0.9 0.6 0.6
315 1 0.8 0.7 0.6
335 1 0.8 0.6 0.7
20 1 0.1 0.9 0.7
194 1 0.1 0.8 0.6
87 1 0.2 0.9 0.6
109 1 0.3 0.9 0.7
153 1 0.2 0.8 0.7
305 1 0.3 0.8 0.6
175 1 0.5 0.9 0.7
217 1 0.4 0.9 0.6
288 1 0.4 0.8 0.7
347 1 0.5 0.8 0.6
107 1 0.7 0.9 0.7
252 1 0.6 0.9 0.6
303 1 0.7 0.8 0.6
331 1 0.6 0.8 0.7
22 1 0.9 0.9 0.7
195 1 0.9 0.8 0.6
219 1 0.8 0.9 0.6
283 1 0.8 0.8 0.7
2 1 0.1 0.1 0.9
24 1 0.3 0.1 0.9
51 1 0.2 0.1 0.8
74 1 0.5 0.1 0.9
144 1 0.4 0.1 0.8
28 1 0.7 0.1 0.9
212 1 0.6 0.1 0.8
6 1 0.9 0.1 0.9
142 1 0.8 0.1 0.8
32 1 0.1 0.3 0.9
41 1 0.1 0.2 0.8
14 1 0.2 0.2 0.9
113 1 0.3 0.3 0.9
130 1 0.3 0.2 0.8
139 1 0.2 0.3 0.8
62 1 0.4 0.2 0.9
189 1 0.5 0.3 0.9
197 1 0.5 0.2 0.8
277 1 0.4 0.3 0.8
93 1 0.6 0.2 0.9
117 1 0.7 0.3 0.9
129 1 0.7 0.2 0.8
321 1 0.6 0.3 0.8
34 1 0.9 0.3 0.9
42 1 0.9 0.2 0.8
64 1 0.8 0.2 0.9
278 1 0.8 0.3 0.8
78 1 0.1 0.5 0.9
126 1 0.1 0.4 0.8
66 1 0.2 0.4 0.9
177 1 0.3 0.5 0.9
220 1 0.2 0.5 0.8
269 1 0.3 0.4 0.8
161 1 0.4 0.4 0.9
245 1 0.5 0.5 0.9
309 1 0.5 0.4 0.8
324 1 0.4 0.5 0.8
179 1 0.7 0.5 0.9
237 1 0.6 0.4 0.9
270 1 0.7 0.4 0.8
355 1 0.6 0.5 0.8
80 1 0.9 0.5 0.9
127 1 0.9 0.4 0.8
165 1 0.8 0.4 0.9
323 1 0.8 0.5 0.8
36 1 0.1 0.7 0.9
202 1 0.1 0.6 0.8
95 1 0.2 0.6 0.9
119 1 0.3 0.7 0.9
137 1 0.2 0.7 0.8
312 1 0.3 0.6 0.8
191 1 0.5 0.7 0.9
229 1 0.4 0.6 0.9
280 1 0.4 0.7 0.8
349 1 0.5 0.6 0.8
115 1 0.7 0.7 0.9
257 1 0.6 0.6 0.9
311 1 0.7 0.6 0.8
319 1 0.6 0.7 0.8
38 1 0.9 0.7 0.9
203 1 0.9 0.6 0.8
231 1 0.8 0.6 0.9
275 1 0.8 0.7 0.8
4 1 0.1 0.9 0.9
122 1 0.1 0.8 0.8
26 1 0.3 0.9 0.9
52 1 0.2 0.9 0.8
68 1 0.2 0.8 0.9
272 1 0.3 0.8 0.8
76 1 0.5 0.9 0.9
145 1 0.4 0.9 0.8
167 1 0.4 0.8 0.9
307 1 0.5 0.8 0.8
30 1 0.7 0.9 0.9
213 1 0.6 0.9 0.8
239 1 0.6 0.8 0.9
267 1 0.7 0.8 0.8
8 1 0.9 0.9 0.9
123 1 0.9 0.8 0.8
143 1 0.8 0.9 0.8
163 1 0.8 0.8 0.9
ITEM: TIMESTEP
50
ITEM: NUMBER OF ATOMS
365
ITEM: BOX BOUNDS pp pp pp
0.0000000000000000e+00 1.7909549999999999e+01
0.0000000000000000e+00 1.7909549999999999e+01
0.0000000000000000e+00 1.7909549999999999e+01
ITEM: ATOMS id type xs ys zs
1 1 0.102788 0.102788 0.102788
23 1 0.299624 0.100977 0.100977
73 1 0.5 0.100933 0.100933
27 1 0.700376 0.100977 0.100977
5 1 0.897212 0.102788 0.102788
31 1 0.100977 0.299624 0.100977
13 1 0.199702 0.199702 0.0982978
112 1 0.299656 0.299656 0.0972981
61 1 0.399963 0.19977 0.0977829
188 1 0.5 0.299672 0.0972239
92 1 0.600037 0.19977 0.0977829
116 1 0.700344 0.299656 0.0972981
33 1 0.899023 0.299624 0.100977
63 1 0.800298 0.199702 0.0982978
77 1 0.100933 0.5 0.100933
65 1 0.19977 0.399963 0.0977829
176 1 0.299672 0.5 0.0972239
160 1 0.39996 0.39996 0.0971797
244 1 0.5 0.5 0.0971509
178 1 0.700328 0.5 0.0972239
236 1 0.60004 0.39996 0.0971797
79 1 0.899067 0.5 0.100933
164 1 0.80023 0.399963 0.0977829
35 1 0.100977 0.700376 0.100977
94 1 0.19977 0.600037 0.0977829
118 1 0.299656 0.700344 0.0972981
190 1 0.5 0.700328 0.0972239
228 1 0.39996 0.60004 0.0971797
114 1 0.700344 0.700344 0.0972981
256 1 0.60004 0.60004 0.0971797
37 1 0.899023 0.700376 0.100977
230 1 0.80023 0.600037 0.0977829
3 1 0.102788 0.897212 0.102788
25 1 0.299624 0.899023 0.100977
67 1 0.199702 0.800298 0.0982978
75 1 0.5 0.899067 0.100933
166 1 0.399963 0.80023 0.0977829
29 1 0.700376 0.899023 0.100977
238 1 0.600037 0.80023 0.0977829
7 1 0.897212 0.897212 0.102788
162 1 0.800298 0.800298 0.0982978
15 1 0.100977 0.100977 0.299624
11 1 0.199702 0.0982978 0.199702
104 1 0.299656 0.0972981 0.299656
53 1 0.399963 0.0977829 0.19977
172 1 0.5 0.0972239 0.299672
88 1 0.600037 0.0977829 0.19977
110 1 0.700344 0.0972981 0.299656
17 1 0.899023 0.100977 0.299624
55 1 0.800298 0.0982978 0.199702
9 1 0.0982978 0.199702 0.199702
96 1 0.0972981 0.299656 0.299656
43 1 0.299651 0.199405 0.199405
57 1 0.199405 0.299651 0.199405
59 1 0.199405 0.199405 0.299651
258 1 0.299634 0.299634 0.299634
83 1 0.5 0.199388 0.199388
148 1 0.399949 0.299649 0.19911
156 1 0.399949 0.19911 0.299649
294 1 0.5 0.29963 0.29963
44 1 0.700349 0.199405 0.199405
222 1 0.600051 0.299649 0.19911
226 1 0.600051 0.19911 0.299649
265 1 0.700366 0.299634 0.299634
10 1 0.901702 0.199702 0.199702
97 1 0.902702 0.299656 0.299656
150 1 0.800595 0.299651 0.199405
159 1 0.800595 0.199405 0.299651
45 1 0.0977829 0.399963 0.19977
186 1 0.0972239 0.5 0.299672
90 1 0.199388 0.5 0.199388
132 1 0.299649 0.399949 0.19911
152 1 0.19911 0.399949 0.299649
298 1 0.29963 0.5 0.29963
206 1 0.5 0.399949 0.19908
214 1 0.399949 0.5 0.19908
282 1 0.399946 0.399946 0.299625
342 1 0.5 0.5 0.299625
134 1 0.700351 0.399949 0.19911
253 1 0.600051 0.5 0.19908
301 1 0.70037 0.5 0.29963
330 1 0.600054 0.399946 0.299625
46 1 0.902217 0.399963 0.19977
187 1 0.902776 0.5 0.299672
215 1 0.800612 0.5 0.199388
289 1 0.80089 0.399949 0.299649
84 1 0.0977829 0.600037 0.19977
100 1 0.0972981 0.700344 0.299656
58 1 0.199405 0.700349 0.199405
198 1 0.299649 0.600051 0.19911
235 1 0.19911 0.600051 0.299649
263 1 0.299634 0.700366 0.299634
151 1 0.399949 0.700351 0.19911
249 1 0.5 0.600051 0.19908
296 1 0.5 0.70037 0.29963
334 1 0.399946 0.600054 0.299625
199 1 0.700351 0.600051 0.19911
223 1 0.600051 0.700351 0.19911
260 1 0.700366 0.700366 0.299634
360 1 0.600054 0.600054 0.299625
85 1 0.902217 0.600037 0.19977
101 1 0.902702 0.700344 0.299656
149 1 0.800595 0.700349 0.199405
337 1 0.80089 0.600051 0.299649
16 1 0.100977 0.899023 0.299624
47 1 0.0982978 0.800298 0.199702
12 1 0.199702 0.901702 0.199702
105 1 0.299656 0.902702 0.299656
135 1 0.299651 0.800595 0.199405
154 1 0.199405 0.800595 0.299651
54 1 0.399963 0.902217 0.19977
173 1 0.5 0.902776 0.299672
207 1 0.5 0.800612 0.199388
287 1 0.399949 0.80089 0.299649
89 1 0.600037 0.902217 0.19977
111 1 0.700344 0.902702 0.299656
133 1 0.700349 0.800595 0.199405
332 1 0.600051 0.80089 0.299649
18 1 0.899023 0.899023 0.299624
48 1 0.901702 0.800298 0.199702
56 1 0.800298 0.901702 0.199702
284 1 0.800595 0.800595 0.299651
69 1 0.100933 0.100933 0.5
49 1 0.19977 0.0977829 0.399963
180 1 0.299672 0.0972239 0.5
140 1 0.39996 0.0971797 0.39996
242 1 0.5 0.0971509 0.5
182 1 0.700328 0.0972239 0.5
210 1 0.60004 0.0971797 0.39996
71 1 0.899067 0.100933 0.5
146 1 0.80023 0.0977829 0.399963
39 1 0.0977829 0.19977 0.399963
168 1 0.0972239 0.299672 0.5
91 1 0.199388 0.199388 0.5
128 1 0.299649 0.19911 0.399949
136 1 0.19911 0.299649 0.399949
290 1 0.29963 0.29963 0.5
196 1 0.5 0.19908 0.399949
232 1 0.399949 0.19908 0.5
274 1 0.399946 0.299625 0.399946
340 1 0.5 0.299625 0.5
131 1 0.700351 0.19911 0.399949
255 1 0.600051 0.19908 0.5
292 1 0.70037 0.29963 0.5
318 1 0.600054 0.299625 0.399946
40 1 0.902217 0.19977 0.399963
169 1 0.902776 0.299672 0.5
233 1 0.800612 0.199388 0.5
281 1 0.80089 0.299649 0.399949
120 1 0.0971797 0.39996 0.39996
240 1 0.0971509 0.5 0.5
221 1 0.19908 0.5 0.399949
224 1 0.19908 0.399949 0.5
266 1 0.299625 0.399946 0.399946
338 1 0.299625 0.5 0.5
306 1 0.5 0.399946 0.399946
322 1 0.399946 0.5 0.399946
326 1 0.399946 0.399946 0.5
362 1 0.5 0.5 0.5
273 1 0.700375 0.399946 0.399946
339 1 0.700375 0.5 0.5
354 1 0.600054 0.5 0.399946
358 1 0.600054 0.399946 0.5
121 1 0.90282 0.39996 0.39996
241 1 0.902849 0.5 0.5
325 1 0.80092 0.5 0.399949
328 1 0.80092 0.399949 0.5
170 1 0.0972239 0.700328 0.5
204 1 0.0971797 0.60004 0.39996
138 1 0.19911 0.700351 0.399949
254 1 0.19908 0.600051 0.5
293 1 0.29963 0.70037 0.5
310 1 0.299625 0.600054 0.399946
279 1 0.399946 0.700375 0.399946
341 1 0.5 0.700375 0.5
348 1 0.5 0.600054 0.399946
356 1 0.399946 0.600054 0.5
291 1 0.70037 0.70037 0.5
313 1 0.700375 0.600054 0.399946
320 1 0.600054 0.700375 0.399946
365 1 0.600054 0.600054 0.5
171 1 0.902776 0.700328 0.5
205 1 0.90282 0.60004 0.39996
276 1 0.80089 0.700351 0.399949
357 1 0.80092 0.600051 0.5
70 1 0.100933 0.899067 0.5
124 1 0.0977829 0.80023 0.399963
50 1 0.19977 0.902217 0.399963
181 1 0.299672 0.902776 0.5
225 1 0.199388 0.800612 0.5
271 1 0.299649 0.80089 0.399949
141 1 0.39996 0.90282 0.39996
243 1 0.5 0.902849 0.5
308 1 0.5 0.80092 0.399949
329 1 0.399949 0.80092 0.5
183 1 0.700328 0.902776 0.5
211 1 0.60004 0.90282 0.39996
268 1 0.700351 0.80089 0.399949
359 1 0.600051 0.80092 0.5
72 1 0.899067 0.899067 0.5
125 1 0.902217 0.80023 0.399963
147 1 0.80023 0.902217 0.399963
327 1 0.800612 0.800612 0.5
19 1 0.100977 0.100977 0.700376
86 1 0.19977 0.0977829 0.600037
108 1 0.299656 0.0972981 0.700344
174 1 0.5 0.0972239 0.700328
216 1 0.39996 0.0971797 0.60004
106 1 0.700344 0.0972981 0.700344
251 1 0.60004 0.0971797 0.60004
21 1 0.899023 0.100977 0.700376
218 1 0.80023 0.0977829 0.600037
81 1 0.0977829 0.19977 0.600037
102 1 0.0972981 0.299656 0.700344
60 1 0.199405 0.199405 0.700349
200 1 0.299649 0.19911 0.600051
208 1 0.19911 0.299649 0.600051
261 1 0.299634 0.299634 0.700366
158 1 0.399949 0.19911 0.700351
248 1 0.5 0.19908 0.600051
297 1 0.5 0.29963 0.70037
314 1 0.399946 0.299625 0.600054
201 1 0.700351 0.19911 0.600051
227 1 0.600051 0.19911 0.700351
262 1 0.700366 0.299634 0.700366
352 1 0.600054 0.299625 0.600054
82 1 0.902217 0.19977 0.600037
103 1 0.902702 0.299656 0.700344
157 1 0.800595 0.199405 0.700349
316 1 0.80089 0.299649 0.600051
184 1 0.0972239 0.5 0.700328
192 1 0.0971797 0.39996 0.60004
155 1 0.19911 0.399949 0.700351
250 1 0.19908 0.5 0.600051
300 1 0.29963 0.5 0.70037
302 1 0.299625 0.399946 0.600054
285 1 0.399946 0.399946 0.700375
343 1 0.5 0.5 0.700375
346 1 0.5 0.399946 0.600054
350 1 0.399946 0.5 0.600054
299 1 0.70037 0.5 0.70037
304 1 0.700375 0.399946 0.600054
333 1 0.600054 0.399946 0.700375
364 1 0.600054 0.5 0.600054
185 1 0.902776 0.5 0.700328
193 1 0.90282 0.39996 0.60004
286 1 0.80089 0.399949 0.700351
351 1 0.80092 0.5 0.600051
98 1 0.0972981 0.700344 0.700344
246 1 0.0971797 0.60004 0.60004
209 1 0.19911 0.700351 0.600051
234 1 0.19911 0.600051 0.700351
264 1 0.299634 0.700366 0.700366
344 1 0.299625 0.600054 0.600054
295 1 0.5 0.70037 0.70037
317 1 0.399946 0.700375 0.600054
336 1 0.399946 0.600054 0.700375
363 1 0.5 0.600054 0.600054
259 1 0.700366 0.700366 0.700366
345 1 0.700375 0.600054 0.600054
353 1 0.600054 0.700375 0.600054
361 1 0.600054 0.600054 0.700375
99 1 0.902702 0.700344 0.700344
247 1 0.90282 0.60004 0.60004
315 1 0.80089 0.700351 0.600051
335 1 0.80089 0.600051 0.700351
20 1 0.100977 0.899023 0.700376
194 1 0.0977829 0.80023 0.600037
87 1 0.19977 0.902217 0.600037
109 1 0.299656 0.902702 0.700344
153 1 0.199405 0.800595 0.700349
305 1 0.299649 0.80089 0.600051
175 1 0.5 0.902776 0.700328
217 1 0.39996 0.90282 0.60004
288 1 0.399949 0.80089 0.700351
347 1 0.5 0.80092 0.600051
107 1 0.700344 0.902702 0.700344
252 1 0.60004 0.90282 0.60004
303 1 0.700351 0.80089 0.600051
331 1 0.600051 0.80089 0.700351
22 1 0.899023 0.899023 0.700376
195 1 0.902217 0.80023 0.600037
219 1 0.80023 0.902217 0.600037
283 1 0.800595 0.800595 0.700349
2 1 0.102788 0.102788 0.897212
24 1 0.299624 0.100977 0.899023
51 1 0.199702 0.0982978 0.800298
74 1 0.5 0.100933 0.899067
144 1 0.399963 0.0977829 0.80023
28 1 0.700376 0.100977 0.899023
212 1 0.600037 0.0977829 0.80023
6 1 0.897212 0.102788 0.897212
142 1 0.800298 0.0982978 0.800298
32 1 0.100977 0.299624 0.899023
41 1 0.0982978 0.199702 0.800298
14 1 0.199702 0.199702 0.901702
113 1 0.299656 0.299656 0.902702
130 1 0.299651 0.199405 0.800595
139 1 0.199405 0.299651 0.800595
62 1 0.399963 0.19977 0.902217
189 1 0.5 0.299672 0.902776
197 1 0.5 0.199388 0.800612
277 1 0.399949 0.299649 0.80089
93 1 0.600037 0.19977 0.902217
117 1 0.700344 0.299656 0.902702
129 1 0.700349 0.199405 0.800595
321 1 0.600051 0.299649 0.80089
34 1 0.899023 0.299624 0.899023
42 1 0.901702 0.199702 0.800298
64 1 0.800298 0.199702 0.901702
278 1 0.800595 0.299651 0.800595
78 1 0.100933 0.5 0.899067
126 1 0.0977829 0.399963 0.80023
66 1 0.19977 0.399963 0.902217
177 1 0.299672 0.5 0.902776
220 1 0.199388 0.5 0.800612
269 1 0.299649 0.399949 0.80089
161 1 0.39996 0.39996 0.90282
245 1 0.5 0.5 0.902849
309 1 0.5 0.399949 0.80092
324 1 0.399949 0.5 0.80092
179 1 0.700328 0.5 0.902776
237 1 0.60004 0.39996 0.90282
270 1 0.700351 0.399949 0.80089
355 1 0.600051 0.5 0.80092
80 1 0.899067 0.5 0.899067
127 1 0.902217 0.399963 0.80023
165 1 0.80023 0.399963 0.902217
323 1 0.800612 0.5 0.800612
36 1 0.100977 0.700376 0.899023
202 1 0.0977829 0.600037 0.80023
95 1 0.19977 0.600037 0.902217
119 1 0.299656 0.700344 0.902702
137 1 0.199405 0.700349 0.800595
312 1 0.299649 0.600051 0.80089
191 1 0.5 0.700328 0.902776
229 1 0.39996 0.60004 0.90282
280 1 0.399949 0.700351 0.80089
349 1 0.5 0.600051 0.80092
115 1 0.700344 0.700344 0.902702
257 1 0.60004 0.60004 0.90282
311 1 0.700351 0.600051 0.80089
319 1 0.600051 0.700351 0.80089
38 1 0.899023 0.700376 0.899023
203 1 0.902217 0.600037 0.80023
231 1 0.80023 0.600037 0.902217
275 1 0.800595 0.700349 0.800595
4 1 0.102788 0.897212 0.897212
122 1 0.0982978 0.800298 0.800298
26 1 0.299624 0.899023 0.899023
52 1 0.199702 0.901702 0.800298
68 1 0.199702 0.800298 0.901702
272 1 0.299651 0.800595 0.800595
76 1 0.5 0.899067 0.899067
145 1 0.399963 0.902217 0.80023
167 1 0.399963 0.80023 0.902217
307 1 0.5 0.800612 0.800612
30 1 0.700376 0.899023 0.899023
213 1 0.600037 0.902217 0.80023
239 1 0.600037 0.80023 0.902217
267 1 0.700349 0.800595 0.800595
8 1 0.897212 0.897212 0.897212
123 1 0.901702 0.800298 0.800298
143 1 0.800298 0.901702 0.800298
163 1 0.800298 0.800298 0.901702
ITEM: TIMESTEP
100
ITEM: NUMBER OF ATOMS
365
ITEM: BOX BOUNDS pp pp pp
0.0000000000000000e+00 1.7909549999999999e+01
0.0000000000000000e+00 1.7909549999999999e+01
0.0000000000000000e+00 1.7909549999999999e+01
ITEM: ATOMS id type xs ys zs
1 1 0.106819 0.106819 0.106819
23 1 0.298751 0.102157 0.102157
73 1 0.5 0.102052 0.102052
27 1 0.701249 0.102157 0.102157
5 1 0.893181 0.106819 0.106819
31 1 0.102157 0.298751 0.102157
13 1 0.200959 0.200959 0.0949795
112 1 0.298894 0.298894 0.0913213
61 1 0.399653 0.199346 0.0932401
188 1 0.5 0.298832 0.0907891
92 1 0.600347 0.199346 0.0932401
116 1 0.701106 0.298894 0.0913213
33 1 0.897843 0.298751 0.102157
63 1 0.799041 0.200959 0.0949795
77 1 0.102052 0.5 0.102052
65 1 0.199346 0.399653 0.0932401
176 1 0.298832 0.5 0.0907891
160 1 0.399626 0.399626 0.090487
244 1 0.5 0.5 0.0902083
178 1 0.701168 0.5 0.0907891
236 1 0.600374 0.399626 0.090487
79 1 0.897948 0.5 0.102052
164 1 0.800654 0.399653 0.0932401
35 1 0.102157 0.701249 0.102157
94 1 0.199346 0.600347 0.0932401
118 1 0.298894 0.701106 0.0913213
190 1 0.5 0.701168 0.0907891
228 1 0.399626 0.600374 0.090487
114 1 0.701106 0.701106 0.0913213
256 1 0.600374 0.600374 0.090487
37 1 0.897843 0.701249 0.102157
230 1 0.800654 0.600347 0.0932401
3 1 0.106819 0.893181 0.106819
25 1 0.298751 0.897843 0.102157
67 1 0.200959 0.799041 0.0949795
75 1 0.5 0.897948 0.102052
166 1 0.399653 0.800654 0.0932401
29 1 0.701249 0.897843 0.102157
238 1 0.600347 0.800654 0.0932401
7 1 0.893181 0.893181 0.106819
162 1 0.799041 0.799041 0.0949795
15 1 0.102157 0.102157 0.298751
11 1 0.200959 0.0949795 0.200959
104 1 0.298894 0.0913213 0.298894
53 1 0.399653 0.0932401 0.199346
172 1 0.5 0.0907891 0.298832
88 1 0.600347 0.0932401 0.199346
110 1 0.701106 0.0913213 0.298894
17 1 0.897843 0.102157 0.298751
55 1 0.799041 0.0949795 0.200959
9 1 0.0949795 0.200959 0.200959
96 1 0.0913213 0.298894 0.298894
43 1 0.299284 0.198517 0.198517
57 1 0.198517 0.299284 0.198517
59 1 0.198517 0.198517 0.299284
258 1 0.298782 0.298782 0.298782
83 1 0.5 0.198189 0.198189
148 1 0.399593 0.298879 0.19548
156 1 0.399593 0.19548 0.298879
294 1 0.5 0.298436 0.298436
44 1 0.700716 0.198517 0.198517
222 1 0.600407 0.298879 0.19548
226 1 0.600407 0.19548 0.298879
265 1 0.701218 0.298782 0.298782
10 1 0.90502 0.200959 0.200959
97 1 0.908679 0.298894 0.298894
150 1 0.801483 0.299284 0.198517
159 1 0.801483 0.198517 0.299284
45 1 0.0932401 0.399653 0.199346
186 1 0.0907891 0.5 0.298832
90 1 0.198189 0.5 0.198189
132 1 0.298879 0.399593 0.19548
152 1 0.19548 0.399593 0.298879
298 1 0.298436 0.5 0.298436
206 1 0.5 0.399557 0.194955
214 1 0.399557 0.5 0.194955
282 1 0.399527 0.399527 0.298154
342 1 0.5 0.5 0.298067
134 1 0.701121 0.399593 0.19548
253 1 0.600443 0.5 0.194955
301 1 0.701564 0.5 0.298436
330 1 0.600473 0.399527 0.298154
46 1 0.90676 0.399653 0.199346
187 1 0.909211 0.5 0.298832
215 1 0.801811 0.5 0.198189
289 1 0.80452 0.399593 0.298879
84 1 0.0932401 0.600347 0.199346
100 1 0.0913213 0.701106 0.298894
58 1 0.198517 0.700716 0.198517
198 1 0.298879 0.600407 0.19548
235 1 0.19548 0.600407 0.298879
263 1 0.298782 0.701218 0.298782
151 1 0.399593 0.701121 0.19548
249 1 0.5 0.600443 0.194955
296 1 0.5 0.701564 0.298436
334 1 0.399527 0.600473 0.298154
199 1 0.701121 0.600407 0.19548
223 1 0.600407 0.701121 0.19548
260 1 0.701218 0.701218 0.298782
360 1 0.600473 0.600473 0.298154
85 1 0.90676 0.600347 0.199346
101 1 0.908679 0.701106 0.298894
149 1 0.801483 0.700716 0.198517
337 1 0.80452 0.600407 0.298879
16 1 0.102157 0.897843 0.298751
47 1 0.0949795 0.799041 0.200959
12 1 0.200959 0.90502 0.200959
105 1 0.298894 0.908679 0.298894
135 1 0.299284 0.801483 0.198517
154 1 0.198517 0.801483 0.299284
54 1 0.399653 0.90676 0.199346
173 1 0.5 0.909211 0.298832
207 1 0.5 0.801811 0.198189
287 1 0.399593 0.80452 0.298879
89 1 0.600347 0.90676 0.199346
111 1 0.701106 0.908679 0.298894
133 1 0.700716 0.801483 0.198517
332 1 0.600407 0.80452 0.298879
18 1 0.897843 0.897843 0.298751
48 1 0.90502 0.799041 0.200959
56 1 0.799041 0.90502 0.200959
284 1 0.801483 0.801483 0.299284
69 1 0.102052 0.102052 0.5
49 1 0.199346 0.0932401 0.399653
180 1 0.298832 0.0907891 0.5
140 1 0.399626 0.090487 0.399626
242 1 0.5 0.0902083 0.5
182 1 0.701168 0.0907891 0.5
210 1 0.600374 0.090487 0.399626
71 1 0.897948 0.102052 0.5
146 1 0.800654 0.0932401 0.399653
39 1 0.0932401 0.199346 0.399653
168 1 0.0907891 0.298832 0.5
91 1 0.198189 0.198189 0.5
128 1 0.298879 0.19548 0.399593
136 1 0.19548 0.298879 0.399593
290 1 0.298436 0.298436 0.5
196 1 0.5 0.194955 0.399557
232 1 0.399557 0.194955 0.5
274 1 0.399527 0.298154 0.399527
340 1 0.5 0.298067 0.5
131 1 0.701121 0.19548 0.399593
255 1 0.600443 0.194955 0.5
292 1 0.701564 0.298436 0.5
318 1 0.600473 0.298154 0.399527
40 1 0.90676 0.199346 0.399653
169 1 0.909211 0.298832 0.5
233 1 0.801811 0.198189 0.5
281 1 0.80452 0.298879 0.399593
120 1 0.090487 0.399626 0.399626
240 1 0.0902083 0.5 0.5
221 1 0.194955 0.5 0.399557
224 1 0.194955 0.399557 0.5
266 1 0.298154 0.399527 0.399527
338 1 0.298067 0.5 0.5
306 1 0.5 0.399458 0.399458
322 1 0.399458 0.5 0.399458
326 1 0.399458 0.399458 0.5
362 1 0.5 0.5 0.5
273 1 0.701846 0.399527 0.399527
339 1 0.701933 0.5 0.5
354 1 0.600542 0.5 0.399458
358 1 0.600542 0.399458 0.5
121 1 0.909513 0.399626 0.399626
241 1 0.909792 0.5 0.5
325 1 0.805045 0.5 0.399557
328 1 0.805045 0.399557 0.5
170 1 0.0907891 0.701168 0.5
204 1 0.090487 0.600374 0.399626
138 1 0.19548 0.701121 0.399593
254 1 0.194955 0.600443 0.5
293 1 0.298436 0.701564 0.5
310 1 0.298154 0.600473 0.399527
279 1 0.399527 0.701846 0.399527
341 1 0.5 0.701933 0.5
348 1 0.5 0.600542 0.399458
356 1 0.399458 0.600542 0.5
291 1 0.701564 0.701564 0.5
313 1 0.701846 0.600473 0.399527
320 1 0.600473 0.701846 0.399527
365 1 0.600542 0.600542 0.5
171 1 0.909211 0.701168 0.5
205 1 0.909513 0.600374 0.399626
276 1 0.80452 0.701121 0.399593
357 1 0.805045 0.600443 0.5
70 1 0.102052 0.897948 0.5
124 1 0.0932401 0.800654 0.399653
50 1 0.199346 0.90676 0.399653
181 1 0.298832 0.909211 0.5
225 1 0.198189 0.801811 0.5
271 1 0.298879 0.80452 0.399593
141 1 0.399626 0.909513 0.399626
243 1 0.5 0.909792 0.5
308 1 0.5 0.805045 0.399557
329 1 0.399557 0.805045 0.5
183 1 0.701168 0.909211 0.5
211 1 0.600374 0.909513 0.399626
268 1 0.701121 0.80452 0.399593
359 1 0.600443 0.805045 0.5
72 1 0.897948 0.897948 0.5
125 1 0.90676 0.800654 0.399653
147 1 0.800654 0.90676 0.399653
327 1 0.801811 0.801811 0.5
19 1 0.102157 0.102157 0.701249
86 1 0.199346 0.0932401 0.600347
108 1 0.298894 0.0913213 0.701106
174 1 0.5 0.0907891 0.701168
216 1 0.399626 0.090487 0.600374
106 1 0.701106 0.0913213 0.701106
251 1 0.600374 0.090487 0.600374
21 1 0.897843 0.102157 0.701249
218 1 0.800654 0.0932401 0.600347
81 1 0.0932401 0.199346 0.600347
102 1 0.0913213 0.298894 0.701106
60 1 0.198517 0.198517 0.700716
200 1 0.298879 0.19548 0.600407
208 1 0.19548 0.298879 0.600407
261 1 0.298782 0.298782 0.701218
158 1 0.399593 0.19548 0.701121
248 1 0.5 0.194955 0.600443
297 1 0.5 0.298436 0.701564
314 1 0.399527 0.298154 0.600473
201 1 0.701121 0.19548 0.600407
227 1 0.600407 0.19548 0.701121
262 1 0.701218 0.298782 0.701218
352 1 0.600473 0.298154 0.600473
82 1 0.90676 0.199346 0.600347
103 1 0.908679 0.298894 0.701106
157 1 0.801483 0.198517 0.700716
316 1 0.80452 0.298879 0.600407
184 1 0.0907891 0.5 0.701168
192 1 0.090487 0.399626 0.600374
155 1 0.19548 0.399593 0.701121
250 1 0.194955 0.5 0.600443
300 1 0.298436 0.5 0.701564
302 1 0.298154 0.399527 0.600473
285 1 0.399527 0.399527 0.701846
343 1 0.5 0.5 0.701933
346 1 0.5 0.399458 0.600542
350 1 0.399458 0.5 0.600542
299 1 0.701564 0.5 0.701564
304 1 0.701846 0.399527 0.600473
333 1 0.600473 0.399527 0.701846
364 1 0.600542 0.5 0.600542
185 1 0.909211 0.5 0.701168
193 1 0.909513 0.399626 0.600374
286 1 0.80452 0.399593 0.701121
351 1 0.805045 0.5 0.600443
98 1 0.0913213 0.701106 0.701106
246 1 0.090487 0.600374 0.600374
209 1 0.19548 0.701121 0.600407
234 1 0.19548 0.600407 0.701121
264 1 0.298782 0.701218 0.701218
344 1 0.298154 0.600473 0.600473
295 1 0.5 0.701564 0.701564
317 1 0.399527 0.701846 0.600473
336 1 0.399527 0.600473 0.701846
363 1 0.5 0.600542 0.600542
259 1 0.701218 0.701218 0.701218
345 1 0.701846 0.600473 0.600473
353 1 0.600473 0.701846 0.600473
361 1 0.600473 0.600473 0.701846
99 1 0.908679 0.701106 0.701106
247 1 0.909513 0.600374 0.600374
315 1 0.80452 0.701121 0.600407
335 1 0.80452 0.600407 0.701121
20 1 0.102157 0.897843 0.701249
194 1 0.0932401 0.800654 0.600347
87 1 0.199346 0.90676 0.600347
109 1 0.298894 0.908679 0.701106
153 1 0.198517 0.801483 0.700716
305 1 0.298879 0.80452 0.600407
175 1 0.5 0.909211 0.701168
217 1 0.399626 0.909513 0.600374
288 1 0.399593 0.80452 0.701121
347 1 0.5 0.805045 0.600443
107 1 0.701106 0.908679 0.701106
252 1 0.600374 0.909513 0.600374
303 1 0.701121 0.80452 0.600407
331 1 0.600407 0.80452 0.701121
22 1 0.897843 0.897843 0.701249
195 1 0.90676 0.800654 0.600347
219 1 0.800654 0.90676 0.600347
283 1 0.801483 0.801483 0.700716
2 1 0.106819 0.106819 0.893181
24 1 0.298751 0.102157 0.897843
51 1 0.200959 0.0949795 0.799041
74 1 0.5 0.102052 0.897948
144 1 0.399653 0.0932401 0.800654
28 1 0.701249 0.102157 0.897843
212 1 0.600347 0.0932401 0.800654
6 1 0.893181 0.106819 0.893181
142 1 0.799041 0.0949795 0.799041
32 1 0.102157 0.298751 0.897843
41 1 0.0949795 0.200959 0.799041
14 1 0.200959 0.200959 0.90502
113 1 0.298894 0.298894 0.908679
130 1 0.299284 0.198517 0.801483
139 1 0.198517 0.299284 0.801483
62 1 0.399653 0.199346 0.90676
189 1 0.5 0.298832 0.909211
197 1 0.5 0.198189 0.801811
277 1 0.399593 0.298879 0.80452
93 1 0.600347 0.199346 0.90676
117 1 0.701106 0.298894 0.908679
129 1 0.700716 0.198517 0.801483
321 1 0.600407 0.298879 0.80452
34 1 0.897843 0.298751 0.897843
42 1 0.90502 0.200959 0.799041
64 1 0.799041 0.200959 0.90502
278 1 0.801483 0.299284 0.801483
78 1 0.102052 0.5 0.897948
126 1 0.0932401 0.399653 0.800654
66 1 0.199346 0.399653 0.90676
177 1 0.298832 0.5 0.909211
220 1 0.198189 0.5 0.801811
269 1 0.298879 0.399593 0.80452
161 1 0.399626 0.399626 0.909513
245 1 0.5 0.5 0.909792
309 1 0.5 0.399557 0.805045
324 1 0.399557 0.5 0.805045
179 1 0.701168 0.5 0.909211
237 1 0.600374 0.399626 0.909513
270 1 0.701121 0.399593 0.80452
355 1 0.600443 0.5 0.805045
80 1 0.897948 0.5 0.897948
127 1 0.90676 0.399653 0.800654
165 1 0.800654 0.399653 0.90676
323 1 0.801811 0.5 0.801811
36 1 0.102157 0.701249 0.897843
202 1 0.0932401 0.600347 0.800654
95 1 0.199346 0.600347 0.90676
119 1 0.298894 0.701106 0.908679
137 1 0.198517 0.700716 0.801483
312 1 0.298879 0.600407 0.80452
191 1 0.5 0.701168 0.909211
229 1 0.399626 0.600374 0.909513
280 1 0.399593 0.701121 0.80452
349 1 0.5 0.600443 0.805045
115 1 0.701106 0.701106 0.908679
257 1 0.600374 0.600374 0.909513
311 1 0.701121 0.600407 0.80452
319 1 0.600407 0.701121 0.80452
38 1 0.897843 0.701249 0.897843
203 1 0.90676 0.600347 0.800654
231 1 0.800654 0.600347 0.90676
275 1 0.801483 0.700716 0.801483
4 1 0.106819 0.893181 0.893181
122 1 0.0949795 0.799041 0.799041
26 1 0.298751 0.897843 0.897843
52 1 0.200959 0.90502 0.799041
68 1 0.200959 0.799041 0.90502
272 1 0.299284 0.801483 0.801483
76 1 0.5 0.897948 0.897948
145 1 0.399653 0.90676 0.800654
167 1 0.399653 0.800654 0.90676
307 1 0.5 0.801811 0.801811
30 1 0.701249 0.897843 0.897843
213 1 0.600347 0.90676 0.800654
239 1 0.600347 0.800654 0.90676
267 1 0.700716 0.801483 0.801483
8 1 0.893181 0.893181 0.893181
123 1 0.90502 0.799041 0.799041
143 1 0.799041 0.90502 0.799041
163 1 0.799041 0.799041 0.90502
